
     Program PWSCF v.7.1 starts on  4May2023 at 14:12:30 

     This program is part of the open-source Quantum ESPRESSO suite
     for quantum simulation of materials; please cite
         "P. Giannozzi et al., J. Phys.:Condens. Matter 21 395502 (2009);
         "P. Giannozzi et al., J. Phys.:Condens. Matter 29 465901 (2017);
         "P. Giannozzi et al., J. Chem. Phys. 152 154105 (2020);
          URL http://www.quantum-espresso.org", 
     in publications or presentations arising from this work. More details at
     http://www.quantum-espresso.org/quote

     Parallel version (MPI), running on     8 processors

     MPI processes distributed on     1 nodes
     13575 MiB available memory on the printing compute node when the environment starts

     Reading input from ethylendiamine-relax.in
Warning: card END FINAL COORDINATES ignored

     Current dimensions of program PWSCF are:
     Max number of different atomic species (ntypx) = 10
     Max number of k-points (npk) =  40000
     Max angular momentum in pseudopotentials (lmaxx) =  4

     IMPORTANT: XC functional enforced from input :
     Exchange-correlation= PBE
                           (   1   4   3   4   0   0   0)
     Any further DFT definition will be discarded
     Please, verify this is what you really want


     gamma-point specific algorithms are used

     R & G space division:  proc/nbgrp/npool/nimage =       8
     Subspace diagonalization in iterative solution of the eigenvalue problem:
     a serial algorithm will be used


     Parallelization info
     --------------------
     sticks:   dense  smooth     PW     G-vecs:    dense   smooth      PW
     Min        2840    2273    565               322292   230693   28796
     Max        2842    2276    568               322302   230704   28800
     Sum       22733   18197   4537              2578383  1845573  230389

     Using Slab Decomposition



     bravais-lattice index     =            0
     lattice parameter (alat)  =      37.7945  a.u.
     unit-cell volume          =   53986.6760 (a.u.)^3
     number of atoms/cell      =           12
     number of atomic types    =            4
     number of electrons       =        26.00
     number of Kohn-Sham states=           17
     kinetic-energy cutoff     =      40.0000  Ry
     charge density cutoff     =     200.0000  Ry
     scf convergence threshold =      1.0E-07
     mixing beta               =       0.6000
     number of iterations used =            8  local-TF  mixing
     energy convergence thresh.=      1.0E-06
     force convergence thresh. =      5.0E-04
     Exchange-correlation= PBE
                           (   1   4   3   4   0   0   0)
     nstep                     =          120


     celldm(1)=  37.794522  celldm(2)=   0.000000  celldm(3)=   0.000000
     celldm(4)=   0.000000  celldm(5)=   0.000000  celldm(6)=   0.000000

     crystal axes: (cart. coord. in units of alat)
               a(1) = (   1.000000   0.000000   0.000000 )  
               a(2) = (   0.000000   1.000000   0.000000 )  
               a(3) = (   0.000000   0.000000   1.000000 )  

     reciprocal axes: (cart. coord. in units 2 pi/alat)
               b(1) = (  1.000000  0.000000  0.000000 )  
               b(2) = (  0.000000  1.000000  0.000000 )  
               b(3) = (  0.000000  0.000000  1.000000 )  


     PseudoPot. # 1 for P  read from file:
     /home/rrr/espresso/pseudo/p_pbe_v1.5.uspp.F.UPF
     MD5 check sum: eb82b2c351da08c5f5f8709277dc7ee5
     Pseudo is Ultrasoft + core correction, Zval =  5.0
     Generated by new atomic code, or converted to UPF format
     Using radial grid of  903 points,  6 beta functions with: 
                l(1) =   0
                l(2) =   0
                l(3) =   1
                l(4) =   1
                l(5) =   2
                l(6) =   2
     Q(r) pseudized with  8 coefficients,  rinner =    1.300   1.300   1.300
                                                       1.300   1.300

     PseudoPot. # 2 for C  read from file:
     /home/rrr/espresso/pseudo/c_pbe_v1.2.uspp.F.UPF
     MD5 check sum: d1aef80898a10debaa0f26306b886e00
     Pseudo is Ultrasoft + core correction, Zval =  4.0
     Generated by new atomic code, or converted to UPF format
     Using radial grid of  721 points,  4 beta functions with: 
                l(1) =   0
                l(2) =   0
                l(3) =   1
                l(4) =   1
     Q(r) pseudized with  8 coefficients,  rinner =    1.100   1.100   1.100


     PseudoPot. # 3 for H  read from file:
     /home/rrr/espresso/pseudo/h_pbe_v1.4.uspp.F.UPF
     MD5 check sum: 761ae9a214b05c3daf00ab9f6b793d6f
     Pseudo is Ultrasoft, Zval =  1.0
     Generated by new atomic code, or converted to UPF format
     Using radial grid of  615 points,  2 beta functions with: 
                l(1) =   0
                l(2) =   0
     Q(r) pseudized with  8 coefficients,  rinner =    0.700

     PseudoPot. # 4 for N  read from file:
     /home/rrr/espresso/pseudo/n_pbe_v1.2.uspp.F.UPF
     MD5 check sum: 95339753478d7afb44899504a8723017
     Pseudo is Ultrasoft + core correction, Zval =  5.0
     Generated by new atomic code, or converted to UPF format
     Using radial grid of  729 points,  4 beta functions with: 
                l(1) =   0
                l(2) =   0
                l(3) =   1
                l(4) =   1
     Q(r) pseudized with  8 coefficients,  rinner =    0.900   0.900   0.900


     atomic species   valence    mass     pseudopotential
        P              5.00     1.00000     P ( 1.00)
        C              4.00     1.00000     C ( 1.00)
        H              1.00     1.00000     H ( 1.00)
        N              5.00     1.00000     N ( 1.00)

     No symmetry found



   Cartesian axes

     site n.     atom                  positions (alat units)
         1           N   tau(   1) = (   0.5929150   0.5077950   0.4997750  )
         2           N   tau(   2) = (   0.4070850   0.4922000   0.4997750  )
         3           C   tau(   3) = (   0.5281450   0.4742550   0.5002250  )
         4           C   tau(   4) = (   0.4718550   0.5257500   0.5002250  )
         5           H   tau(   5) = (   0.5244800   0.4417700   0.4562350  )
         6           H   tau(   6) = (   0.5248550   0.4424550   0.5447150  )
         7           H   tau(   7) = (   0.4751450   0.5575450   0.5447200  )
         8           H   tau(   8) = (   0.4755150   0.5582300   0.4562300  )
         9           H   tau(   9) = (   0.5972100   0.5362950   0.4577400  )
        10           H   tau(  10) = (   0.6299750   0.4729150   0.4972250  )
        11           H   tau(  11) = (   0.4027950   0.4637050   0.4577450  )
        12           H   tau(  12) = (   0.3700200   0.5270750   0.4972250  )

     -------------------------------------------------
     Parameters for Dispersion (Grimme-D2) Correction:
     -------------------------------------------------
       atom      VdW radius       C_6     

        P          3.222        271.980
        C          2.744         60.710
        H          1.892          4.857
        N          2.640         42.670

     number of k points=     1  Fermi-Dirac smearing, width (Ry)=  0.0010
                       cart. coord. in units 2pi/alat
        k(    1) = (   0.0000000   0.0000000   0.0000000), wk =   2.0000000

     Dense  grid:  1289192 G-vectors     FFT dimensions: ( 180, 180, 180)

     Smooth grid:   922787 G-vectors     FFT dimensions: ( 160, 160, 160)

     Estimated max dynamical RAM per process >     664.15 MB

     Estimated total dynamical RAM >       5.19 GB

     Initial potential from superposition of free atoms

     starting charge      25.9998, renormalised to      26.0000

     negative rho (up, down):  6.222E-03 0.000E+00
     Starting wfcs are   24 randomized atomic wfcs

     total cpu time spent up to now is        6.1 secs

     Self-consistent Calculation

     iteration #  1     ecut=    40.00 Ry     beta= 0.60
     Davidson diagonalization with overlap
     ethr =  1.00E-02,  avg # of iterations =  7.0

     negative rho (up, down):  1.554E-03 0.000E+00

     total cpu time spent up to now is       23.5 secs

     total energy              =     -72.80232898 Ry
     estimated scf accuracy    <       1.52838813 Ry

     iteration #  2     ecut=    40.00 Ry     beta= 0.60
     Davidson diagonalization with overlap
     ethr =  5.88E-03,  avg # of iterations =  1.0

     negative rho (up, down):  9.744E-04 0.000E+00

     total cpu time spent up to now is       33.5 secs

     total energy              =     -72.72378304 Ry
     estimated scf accuracy    <       0.41854142 Ry

     iteration #  3     ecut=    40.00 Ry     beta= 0.60
     Davidson diagonalization with overlap
     ethr =  1.61E-03,  avg # of iterations =  2.0

     negative rho (up, down):  3.897E-04 0.000E+00

     total cpu time spent up to now is       44.6 secs

     total energy              =     -72.73870110 Ry
     estimated scf accuracy    <       0.08493403 Ry

     iteration #  4     ecut=    40.00 Ry     beta= 0.60
     Davidson diagonalization with overlap
     ethr =  3.27E-04,  avg # of iterations =  5.0

     negative rho (up, down):  9.096E-03 0.000E+00

     total cpu time spent up to now is       58.4 secs

     total energy              =     -72.72777721 Ry
     estimated scf accuracy    <       0.03664510 Ry

     iteration #  5     ecut=    40.00 Ry     beta= 0.60
     Davidson diagonalization with overlap
     ethr =  1.41E-04,  avg # of iterations =  5.0

     negative rho (up, down):  1.621E-01 0.000E+00

     total cpu time spent up to now is       72.4 secs

     total energy              =     -72.72681727 Ry
     estimated scf accuracy    <       0.01796494 Ry

     iteration #  6     ecut=    40.00 Ry     beta= 0.60
     Davidson diagonalization with overlap
     ethr =  6.91E-05,  avg # of iterations =  5.0

     negative rho (up, down):  1.494E-01 0.000E+00

     total cpu time spent up to now is       86.1 secs

     total energy              =     -72.72635947 Ry
     estimated scf accuracy    <       0.00644532 Ry

     iteration #  7     ecut=    40.00 Ry     beta= 0.60
     Davidson diagonalization with overlap
     ethr =  2.48E-05,  avg # of iterations =  7.0

     negative rho (up, down):  2.006E-01 0.000E+00

     total cpu time spent up to now is      101.7 secs

     total energy              =     -72.72609698 Ry
     estimated scf accuracy    <       0.00395966 Ry

     iteration #  8     ecut=    40.00 Ry     beta= 0.60
     Davidson diagonalization with overlap
     ethr =  1.52E-05,  avg # of iterations =  6.0

     negative rho (up, down):  1.277E-01 0.000E+00

     total cpu time spent up to now is      116.4 secs

     total energy              =     -72.72479735 Ry
     estimated scf accuracy    <       0.00179629 Ry

     iteration #  9     ecut=    40.00 Ry     beta= 0.60
     Davidson diagonalization with overlap
     ethr =  6.91E-06,  avg # of iterations = 16.0

     negative rho (up, down):  1.192E-01 0.000E+00

     total cpu time spent up to now is      140.9 secs

     total energy              =     -72.72467339 Ry
     estimated scf accuracy    <       0.00122904 Ry

     iteration # 10     ecut=    40.00 Ry     beta= 0.60
     Davidson diagonalization with overlap
     ethr =  4.73E-06,  avg # of iterations =  2.0

     negative rho (up, down):  7.706E-02 0.000E+00

     total cpu time spent up to now is      152.1 secs

     total energy              =     -72.72413582 Ry
     estimated scf accuracy    <       0.00051703 Ry

     iteration # 11     ecut=    40.00 Ry     beta= 0.60
     Davidson diagonalization with overlap
     ethr =  1.99E-06,  avg # of iterations = 13.0

     negative rho (up, down):  6.055E-02 0.000E+00

     total cpu time spent up to now is      173.6 secs

     total energy              =     -72.72412568 Ry
     estimated scf accuracy    <       0.00017471 Ry

     iteration # 12     ecut=    40.00 Ry     beta= 0.60
     Davidson diagonalization with overlap
     ethr =  6.72E-07,  avg # of iterations =  4.0

     negative rho (up, down):  3.627E-02 0.000E+00

     total cpu time spent up to now is      186.5 secs

     total energy              =     -72.72412243 Ry
     estimated scf accuracy    <       0.00012153 Ry

     iteration # 13     ecut=    40.00 Ry     beta= 0.60
     Davidson diagonalization with overlap
     ethr =  4.67E-07,  avg # of iterations =  5.0

     negative rho (up, down):  3.219E-02 0.000E+00

     total cpu time spent up to now is      200.8 secs

     total energy              =     -72.72411975 Ry
     estimated scf accuracy    <       0.00005255 Ry

     iteration # 14     ecut=    40.00 Ry     beta= 0.60
     Davidson diagonalization with overlap
     ethr =  2.02E-07,  avg # of iterations =  2.0

     negative rho (up, down):  1.659E-02 0.000E+00

     total cpu time spent up to now is      211.7 secs

     total energy              =     -72.72412373 Ry
     estimated scf accuracy    <       0.00002401 Ry

     iteration # 15     ecut=    40.00 Ry     beta= 0.60
     Davidson diagonalization with overlap
     ethr =  9.23E-08,  avg # of iterations =  9.0

     negative rho (up, down):  1.422E-02 0.000E+00

     total cpu time spent up to now is      230.0 secs

     total energy              =     -72.72413399 Ry
     estimated scf accuracy    <       0.00001479 Ry

     iteration # 16     ecut=    40.00 Ry     beta= 0.60
     Davidson diagonalization with overlap
     ethr =  5.69E-08,  avg # of iterations =  2.0

     negative rho (up, down):  9.299E-03 0.000E+00

     total cpu time spent up to now is      241.5 secs

     total energy              =     -72.72414075 Ry
     estimated scf accuracy    <       0.00000263 Ry

     iteration # 17     ecut=    40.00 Ry     beta= 0.60
     Davidson diagonalization with overlap
     ethr =  1.01E-08,  avg # of iterations =  8.0

     negative rho (up, down):  8.208E-03 0.000E+00

     total cpu time spent up to now is      258.2 secs

     total energy              =     -72.72413920 Ry
     estimated scf accuracy    <       0.00000086 Ry

     iteration # 18     ecut=    40.00 Ry     beta= 0.60
     Davidson diagonalization with overlap
     ethr =  3.30E-09,  avg # of iterations =  1.0

     negative rho (up, down):  7.637E-03 0.000E+00

     total cpu time spent up to now is      268.4 secs

     total energy              =     -72.72413701 Ry
     estimated scf accuracy    <       0.00000049 Ry

     iteration # 19     ecut=    40.00 Ry     beta= 0.60
     Davidson diagonalization with overlap
     ethr =  1.89E-09,  avg # of iterations =  5.0

     negative rho (up, down):  7.696E-03 0.000E+00

     total cpu time spent up to now is      278.9 secs

     End of self-consistent calculation

          k = 0.0000 0.0000 0.0000 (115195 PWs)   bands (ev):

   -22.2396 -21.5682 -17.2032 -14.6654 -12.2553 -11.8160 -10.9264 -10.7669
    -9.5475  -8.6214  -8.4159  -5.4545  -5.2996  -0.6843  -0.4425  -0.1335
    -0.0688

     the Fermi energy is    -2.7381 ev

!    total energy              =     -72.72413690 Ry
     estimated scf accuracy    <       0.00000009 Ry
     smearing contrib. (-TS)   =       0.00000000 Ry
     internal energy E=F+TS    =     -72.72413690 Ry

     The total energy is F=E-TS. E is the sum of the following terms:
     one-electron contribution =    -317.16889668 Ry
     hartree contribution      =     161.92483790 Ry
     xc contribution           =     -23.84126864 Ry
     ewald contribution        =     106.37384229 Ry
     Dispersion Correction     =      -0.01265176 Ry

     convergence has been achieved in  19 iterations

     negative rho (up, down):  7.696E-03 0.000E+00

     Forces acting on atoms (cartesian axes, Ry/au):

     atom    1 type  4   force =     0.00562535    0.00985594    0.01882209
     atom    2 type  4   force =    -0.00553986   -0.00965847    0.01902744
     atom    3 type  2   force =     0.00580362    0.01877505   -0.00436712
     atom    4 type  2   force =    -0.00587212   -0.01884343   -0.00434868
     atom    5 type  3   force =    -0.01993503   -0.01546204   -0.01386600
     atom    6 type  3   force =    -0.00430679   -0.00345226    0.00918044
     atom    7 type  3   force =     0.00429206    0.00345960    0.00912811
     atom    8 type  3   force =     0.01993445    0.01547038   -0.01382177
     atom    9 type  3   force =     0.00141803    0.00859390   -0.01126937
     atom   10 type  3   force =     0.01148019   -0.00594295    0.00149203
     atom   11 type  3   force =    -0.00143195   -0.00874102   -0.01147627
     atom   12 type  3   force =    -0.01146796    0.00594530    0.00149911

     Total force =     0.066477     Total SCF correction =     0.000169

     BFGS Geometry Optimization
     Energy error            =      0.0E+00 Ry
     Gradient error          =      2.0E-02 Ry/Bohr

     number of scf cycles    =   1
     number of bfgs steps    =   0

     energy             new  =     -72.7241368985 Ry

     new trust radius        =       0.0287879536 bohr
     new conv_thr            =       0.0000001000 Ry


ATOMIC_POSITIONS (angstrom)
N            11.8612768059       10.1611155401       10.0054602196
N             8.1387684340        9.8388889594       10.0055688852
C            10.5659711454        9.4950353269       10.0021890194
C             9.4339926061       10.5050284866       10.0021987763
H            10.4790508358        8.8272178394        9.1173624271
H            10.4948209429        8.8472731443       10.8991580821
H             9.5051712613       11.1527307407       10.8992303869
H             9.5208488567       11.1727865749        9.1172858344
H            11.9449503903       10.7304476958        9.1488365064
H            12.6055750574        9.4551551257        9.9452895456
H             8.0551422449        9.2694744502        9.1488270216
H             7.3943314193       10.5446461162        9.9452932954



     Writing config-only to output data dir ethylendiamine/ethylendiamine.save/
     NEW-OLD atomic charge density approx. for the potential

     negative rho (up, down):  7.758E-03 0.000E+00

     total cpu time spent up to now is      288.0 secs

     Self-consistent Calculation

     iteration #  1     ecut=    40.00 Ry     beta= 0.60
     Davidson diagonalization with overlap
     ethr =  1.00E-06,  avg # of iterations =  5.0

     negative rho (up, down):  8.659E-03 0.000E+00

     total cpu time spent up to now is      302.6 secs

     total energy              =     -72.72643540 Ry
     estimated scf accuracy    <       0.00110820 Ry

     iteration #  2     ecut=    40.00 Ry     beta= 0.60
     Davidson diagonalization with overlap
     ethr =  4.26E-06,  avg # of iterations =  2.0

     negative rho (up, down):  9.785E-03 0.000E+00

     total cpu time spent up to now is      313.7 secs

     total energy              =     -72.72644866 Ry
     estimated scf accuracy    <       0.00017642 Ry

     iteration #  3     ecut=    40.00 Ry     beta= 0.60
     Davidson diagonalization with overlap
     ethr =  6.79E-07,  avg # of iterations =  2.0

     negative rho (up, down):  1.012E-02 0.000E+00

     total cpu time spent up to now is      324.7 secs

     total energy              =     -72.72647436 Ry
     estimated scf accuracy    <       0.00002126 Ry

     iteration #  4     ecut=    40.00 Ry     beta= 0.60
     Davidson diagonalization with overlap
     ethr =  8.18E-08,  avg # of iterations =  2.0

     negative rho (up, down):  1.008E-02 0.000E+00

     total cpu time spent up to now is      335.7 secs

     total energy              =     -72.72647616 Ry
     estimated scf accuracy    <       0.00000591 Ry

     iteration #  5     ecut=    40.00 Ry     beta= 0.60
     Davidson diagonalization with overlap
     ethr =  2.27E-08,  avg # of iterations =  1.0

     negative rho (up, down):  9.642E-03 0.000E+00

     total cpu time spent up to now is      345.6 secs

     total energy              =     -72.72647490 Ry
     estimated scf accuracy    <       0.00000379 Ry

     iteration #  6     ecut=    40.00 Ry     beta= 0.60
     Davidson diagonalization with overlap
     ethr =  1.46E-08,  avg # of iterations =  2.0

     negative rho (up, down):  9.364E-03 0.000E+00

     total cpu time spent up to now is      356.7 secs

     total energy              =     -72.72647445 Ry
     estimated scf accuracy    <       0.00000148 Ry

     iteration #  7     ecut=    40.00 Ry     beta= 0.60
     Davidson diagonalization with overlap
     ethr =  5.69E-09,  avg # of iterations =  1.0

     negative rho (up, down):  8.641E-03 0.000E+00

     total cpu time spent up to now is      366.8 secs

     total energy              =     -72.72647369 Ry
     estimated scf accuracy    <       0.00000094 Ry

     iteration #  8     ecut=    40.00 Ry     beta= 0.60
     Davidson diagonalization with overlap
     ethr =  3.63E-09,  avg # of iterations =  2.0

     negative rho (up, down):  8.179E-03 0.000E+00

     total cpu time spent up to now is      377.7 secs

     total energy              =     -72.72647393 Ry
     estimated scf accuracy    <       0.00000045 Ry

     iteration #  9     ecut=    40.00 Ry     beta= 0.60
     Davidson diagonalization with overlap
     ethr =  1.75E-09,  avg # of iterations =  2.0

     negative rho (up, down):  7.827E-03 0.000E+00

     total cpu time spent up to now is      388.8 secs

     total energy              =     -72.72647423 Ry
     estimated scf accuracy    <       0.00000025 Ry

     iteration # 10     ecut=    40.00 Ry     beta= 0.60
     Davidson diagonalization with overlap
     ethr =  9.52E-10,  avg # of iterations =  2.0

     negative rho (up, down):  7.696E-03 0.000E+00

     total cpu time spent up to now is      400.0 secs

     total energy              =     -72.72647423 Ry
     estimated scf accuracy    <       0.00000011 Ry

     iteration # 11     ecut=    40.00 Ry     beta= 0.60
     Davidson diagonalization with overlap
     ethr =  4.41E-10,  avg # of iterations =  2.0

     negative rho (up, down):  7.628E-03 0.000E+00

     total cpu time spent up to now is      408.1 secs

     End of self-consistent calculation

          k = 0.0000 0.0000 0.0000 (115195 PWs)   bands (ev):

   -22.2331 -21.5546 -17.1869 -14.5499 -12.2047 -11.8310 -10.8642 -10.7094
    -9.5542  -8.4947  -8.4024  -5.5026  -5.3510  -0.7037  -0.4647  -0.1355
    -0.0791

     the Fermi energy is    -2.7463 ev

!    total energy              =     -72.72647407 Ry
     estimated scf accuracy    <       0.00000005 Ry
     smearing contrib. (-TS)   =       0.00000000 Ry
     internal energy E=F+TS    =     -72.72647407 Ry

     The total energy is F=E-TS. E is the sum of the following terms:
     one-electron contribution =    -316.33807114 Ry
     hartree contribution      =     161.49257181 Ry
     xc contribution           =     -23.77803694 Ry
     ewald contribution        =     105.90971141 Ry
     Dispersion Correction     =      -0.01264921 Ry

     convergence has been achieved in  11 iterations

     negative rho (up, down):  7.628E-03 0.000E+00

     Forces acting on atoms (cartesian axes, Ry/au):

     atom    1 type  4   force =     0.01381544    0.01285153   -0.00267334
     atom    2 type  4   force =    -0.01385347   -0.01306003   -0.00287738
     atom    3 type  2   force =     0.00175290   -0.01400899   -0.00144249
     atom    4 type  2   force =    -0.00171645    0.01403940   -0.00143352
     atom    5 type  3   force =    -0.01428172   -0.00356376   -0.00072870
     atom    6 type  3   force =    -0.00272662    0.00513278   -0.00290808
     atom    7 type  3   force =     0.00272934   -0.00512036   -0.00294374
     atom    8 type  3   force =     0.01428258    0.00356206   -0.00068480
     atom    9 type  3   force =     0.00162499   -0.00132443    0.00544230
     atom   10 type  3   force =     0.00099113    0.00292468    0.00230618
     atom   11 type  3   force =    -0.00160598    0.00142694    0.00562589
     atom   12 type  3   force =    -0.00101215   -0.00285981    0.00231769

     Total force =     0.041906     Total SCF correction =     0.000105
     Energy error            =      2.3E-03 Ry
     Gradient error          =      1.4E-02 Ry/Bohr

     number of scf cycles    =   2
     number of bfgs steps    =   1

     energy             old  =     -72.7241368985 Ry
     energy             new  =     -72.7264740690 Ry

     CASE: energy            _new < energy            _old

     new trust radius        =       0.0274708551 bohr
     new conv_thr            =       0.0000000286 Ry


ATOMIC_POSITIONS (angstrom)
N            11.8704447927       10.1707459346       10.0084325422
N             8.1295992851        9.8291875163       10.0084745589
C            10.5683477217        9.4915743391       10.0003307410
C             9.4316203517       10.5084904042       10.0003499778
H            10.4662074923        8.8215129329        9.1136441615
H            10.4922495380        8.8493581052       10.8996990058
H             9.5077406982       11.1506545641       10.8997386302
H             9.5336925474       11.1784925063        9.1136029853
H            11.9462090498       10.7317459949        9.1492333563
H            12.6088732598        9.4553953704        9.9469517616
H             8.0538910383        9.2681991513        9.1492785593
H             7.3910242248       10.5444431806        9.9469637201



     Writing config-only to output data dir ethylendiamine/ethylendiamine.save/
     NEW-OLD atomic charge density approx. for the potential

     negative rho (up, down):  7.677E-03 0.000E+00

     total cpu time spent up to now is      417.3 secs

     Self-consistent Calculation

     iteration #  1     ecut=    40.00 Ry     beta= 0.60
     Davidson diagonalization with overlap
     ethr =  1.00E-06,  avg # of iterations =  5.0

     negative rho (up, down):  8.053E-03 0.000E+00

     total cpu time spent up to now is      432.3 secs

     total energy              =     -72.72770282 Ry
     estimated scf accuracy    <       0.00046093 Ry

     iteration #  2     ecut=    40.00 Ry     beta= 0.60
     Davidson diagonalization with overlap
     ethr =  1.77E-06,  avg # of iterations =  1.0

     negative rho (up, down):  8.576E-03 0.000E+00

     total cpu time spent up to now is      442.2 secs

     total energy              =     -72.72769540 Ry
     estimated scf accuracy    <       0.00009032 Ry

     iteration #  3     ecut=    40.00 Ry     beta= 0.60
     Davidson diagonalization with overlap
     ethr =  3.47E-07,  avg # of iterations =  2.0

     negative rho (up, down):  8.635E-03 0.000E+00

     total cpu time spent up to now is      453.4 secs

     total energy              =     -72.72771394 Ry
     estimated scf accuracy    <       0.00000690 Ry

     iteration #  4     ecut=    40.00 Ry     beta= 0.60
     Davidson diagonalization with overlap
     ethr =  2.65E-08,  avg # of iterations =  2.0

     negative rho (up, down):  8.659E-03 0.000E+00

     total cpu time spent up to now is      464.3 secs

     total energy              =     -72.72771469 Ry
     estimated scf accuracy    <       0.00000192 Ry

     iteration #  5     ecut=    40.00 Ry     beta= 0.60
     Davidson diagonalization with overlap
     ethr =  7.38E-09,  avg # of iterations =  2.0

     negative rho (up, down):  8.542E-03 0.000E+00

     total cpu time spent up to now is      475.7 secs

     total energy              =     -72.72771495 Ry
     estimated scf accuracy    <       0.00000091 Ry

     iteration #  6     ecut=    40.00 Ry     beta= 0.60
     Davidson diagonalization with overlap
     ethr =  3.48E-09,  avg # of iterations =  2.0

     negative rho (up, down):  8.435E-03 0.000E+00

     total cpu time spent up to now is      486.8 secs

     total energy              =     -72.72771491 Ry
     estimated scf accuracy    <       0.00000057 Ry

     iteration #  7     ecut=    40.00 Ry     beta= 0.60
     Davidson diagonalization with overlap
     ethr =  2.21E-09,  avg # of iterations =  2.0

     negative rho (up, down):  8.156E-03 0.000E+00

     total cpu time spent up to now is      498.0 secs

     total energy              =     -72.72771491 Ry
     estimated scf accuracy    <       0.00000033 Ry

     iteration #  8     ecut=    40.00 Ry     beta= 0.60
     Davidson diagonalization with overlap
     ethr =  1.27E-09,  avg # of iterations =  2.0

     negative rho (up, down):  8.020E-03 0.000E+00

     total cpu time spent up to now is      508.9 secs

     total energy              =     -72.72771492 Ry
     estimated scf accuracy    <       0.00000019 Ry

     iteration #  9     ecut=    40.00 Ry     beta= 0.60
     Davidson diagonalization with overlap
     ethr =  7.30E-10,  avg # of iterations =  2.0

     negative rho (up, down):  7.787E-03 0.000E+00

     total cpu time spent up to now is      519.8 secs

     total energy              =     -72.72771493 Ry
     estimated scf accuracy    <       0.00000007 Ry

     iteration # 10     ecut=    40.00 Ry     beta= 0.60
     Davidson diagonalization with overlap
     ethr =  2.78E-10,  avg # of iterations =  2.0

     negative rho (up, down):  7.735E-03 0.000E+00

     total cpu time spent up to now is      531.0 secs

     total energy              =     -72.72771494 Ry
     estimated scf accuracy    <       0.00000004 Ry

     iteration # 11     ecut=    40.00 Ry     beta= 0.60
     Davidson diagonalization with overlap
     ethr =  1.48E-10,  avg # of iterations =  1.0

     negative rho (up, down):  7.665E-03 0.000E+00

     total cpu time spent up to now is      538.0 secs

     End of self-consistent calculation

          k = 0.0000 0.0000 0.0000 (115195 PWs)   bands (ev):

   -22.1674 -21.5068 -17.1821 -14.5339 -12.1877 -11.7612 -10.8298 -10.7176
    -9.4832  -8.4888  -8.3779  -5.5670  -5.4110  -0.7075  -0.4688  -0.1354
    -0.0808

     the Fermi energy is    -2.7396 ev

!    total energy              =     -72.72771481 Ry
     estimated scf accuracy    <       0.00000003 Ry
     smearing contrib. (-TS)   =       0.00000000 Ry
     internal energy E=F+TS    =     -72.72771481 Ry

     The total energy is F=E-TS. E is the sum of the following terms:
     one-electron contribution =    -315.28027379 Ry
     hartree contribution      =     160.96113399 Ry
     xc contribution           =     -23.74807440 Ry
     ewald contribution        =     105.35221876 Ry
     Dispersion Correction     =      -0.01271938 Ry

     convergence has been achieved in  11 iterations

     negative rho (up, down):  7.665E-03 0.000E+00

     Forces acting on atoms (cartesian axes, Ry/au):

     atom    1 type  4   force =     0.00158144   -0.00305200   -0.00032604
     atom    2 type  4   force =    -0.00165193    0.00310684   -0.00031355
     atom    3 type  2   force =     0.00072091   -0.00345019   -0.00273586
     atom    4 type  2   force =    -0.00070435    0.00341949   -0.00275982
     atom    5 type  3   force =    -0.00895069    0.00018593    0.00302647
     atom    6 type  3   force =    -0.00121829    0.00432627   -0.00268437
     atom    7 type  3   force =     0.00121269   -0.00430678   -0.00268490
     atom    8 type  3   force =     0.00895223   -0.00017621    0.00304691
     atom    9 type  3   force =     0.00335792    0.00123777    0.00101206
     atom   10 type  3   force =     0.00027235    0.00660115    0.00170701
     atom   11 type  3   force =    -0.00335513   -0.00125642    0.00099478
     atom   12 type  3   force =    -0.00021714   -0.00663584    0.00171731

     Total force =     0.020464     Total SCF correction =     0.000108
     Energy error            =      1.2E-03 Ry
     Gradient error          =      9.0E-03 Ry/Bohr

     number of scf cycles    =   3
     number of bfgs steps    =   2

     energy             old  =     -72.7264740690 Ry
     energy             new  =     -72.7277148117 Ry

     CASE: energy            _new < energy            _old

     new trust radius        =       0.0213981473 bohr
     new conv_thr            =       0.0000000179 Ry


ATOMIC_POSITIONS (angstrom)
N            11.8743154912       10.1718350333       10.0104110146
N             8.1256858079        9.8281336609       10.0104605275
C            10.5699017328        9.4897346238        9.9976169515
C             9.4300737011       10.5103037334        9.9976233438
H            10.4551702354        8.8189986954        9.1137361723
H            10.4904147996        8.8526352212       10.8986746644
H             9.5095699020       11.1473938111       10.8987015646
H             9.5447309160       11.1810144089        9.1137216571
H            11.9489761104       10.7335994320        9.1491722012
H            12.6107866262        9.4595939313        9.9486783662
H             8.0511267493        9.2663272820        9.1492034056
H             7.3891479280       10.5402301666        9.9487001312



     Writing config-only to output data dir ethylendiamine/ethylendiamine.save/
     NEW-OLD atomic charge density approx. for the potential

     negative rho (up, down):  7.688E-03 0.000E+00

     total cpu time spent up to now is      547.5 secs

     Self-consistent Calculation

     iteration #  1     ecut=    40.00 Ry     beta= 0.60
     Davidson diagonalization with overlap
     ethr =  1.00E-06,  avg # of iterations =  3.0

     negative rho (up, down):  7.751E-03 0.000E+00

     total cpu time spent up to now is      559.8 secs

     total energy              =     -72.72816771 Ry
     estimated scf accuracy    <       0.00006885 Ry

     iteration #  2     ecut=    40.00 Ry     beta= 0.60
     Davidson diagonalization with overlap
     ethr =  2.65E-07,  avg # of iterations =  2.0

     negative rho (up, down):  7.842E-03 0.000E+00

     total cpu time spent up to now is      570.7 secs

     total energy              =     -72.72816710 Ry
     estimated scf accuracy    <       0.00001655 Ry

     iteration #  3     ecut=    40.00 Ry     beta= 0.60
     Davidson diagonalization with overlap
     ethr =  6.36E-08,  avg # of iterations =  2.0

     negative rho (up, down):  7.835E-03 0.000E+00

     total cpu time spent up to now is      582.1 secs

     total energy              =     -72.72816980 Ry
     estimated scf accuracy    <       0.00000070 Ry

     iteration #  4     ecut=    40.00 Ry     beta= 0.60
     Davidson diagonalization with overlap
     ethr =  2.70E-09,  avg # of iterations =  2.0

     negative rho (up, down):  7.825E-03 0.000E+00

     total cpu time spent up to now is      593.1 secs

     total energy              =     -72.72817004 Ry
     estimated scf accuracy    <       0.00000010 Ry

     iteration #  5     ecut=    40.00 Ry     beta= 0.60
     Davidson diagonalization with overlap
     ethr =  3.75E-10,  avg # of iterations =  2.0

     negative rho (up, down):  7.809E-03 0.000E+00

     total cpu time spent up to now is      604.2 secs

     total energy              =     -72.72817011 Ry
     estimated scf accuracy    <       0.00000003 Ry

     iteration #  6     ecut=    40.00 Ry     beta= 0.60
     Davidson diagonalization with overlap
     ethr =  1.10E-10,  avg # of iterations =  2.0

     negative rho (up, down):  7.693E-03 0.000E+00

     total cpu time spent up to now is      612.5 secs

     End of self-consistent calculation

          k = 0.0000 0.0000 0.0000 (115195 PWs)   bands (ev):

   -22.1457 -21.4957 -17.1875 -14.5312 -12.1785 -11.7653 -10.8173 -10.7153
    -9.4731  -8.4799  -8.3554  -5.5945  -5.4322  -0.7061  -0.4645  -0.1352
    -0.0802

     the Fermi energy is    -2.7364 ev

!    total energy              =     -72.72817015 Ry
     estimated scf accuracy    <       0.00000002 Ry
     smearing contrib. (-TS)   =       0.00000000 Ry
     internal energy E=F+TS    =     -72.72817015 Ry

     The total energy is F=E-TS. E is the sum of the following terms:
     one-electron contribution =    -314.96295501 Ry
     hartree contribution      =     160.80170262 Ry
     xc contribution           =     -23.74301319 Ry
     ewald contribution        =     105.18882275 Ry
     Dispersion Correction     =      -0.01272732 Ry

     convergence has been achieved in   6 iterations

     negative rho (up, down):  7.693E-03 0.000E+00

     Forces acting on atoms (cartesian axes, Ry/au):

     atom    1 type  4   force =    -0.00703150   -0.00019026   -0.00474393
     atom    2 type  4   force =     0.00709797    0.00009532   -0.00478859
     atom    3 type  2   force =    -0.00222721    0.00183206   -0.00071352
     atom    4 type  2   force =     0.00221203   -0.00183016   -0.00068584
     atom    5 type  3   force =    -0.00573512    0.00019422    0.00215511
     atom    6 type  3   force =    -0.00078729    0.00293780   -0.00173266
     atom    7 type  3   force =     0.00078611   -0.00293934   -0.00174914
     atom    8 type  3   force =     0.00574098   -0.00018788    0.00215681
     atom    9 type  3   force =     0.00346832   -0.00030943    0.00365598
     atom   10 type  3   force =     0.00450006    0.00233144    0.00137559
     atom   11 type  3   force =    -0.00347550    0.00033052    0.00369907
     atom   12 type  3   force =    -0.00454885   -0.00226430    0.00137111

     Total force =     0.019216     Total SCF correction =     0.000059
     Energy error            =      4.6E-04 Ry
     Gradient error          =      7.1E-03 Ry/Bohr

     number of scf cycles    =   4
     number of bfgs steps    =   3

     energy             old  =     -72.7277148117 Ry
     energy             new  =     -72.7281701523 Ry

     CASE: energy            _new < energy            _old

     new trust radius        =       0.0352922429 bohr
     new conv_thr            =       0.0000000142 Ry


ATOMIC_POSITIONS (angstrom)
N            11.8739572290       10.1743213453       10.0092331719
N             8.1260550368        9.8255982320       10.0092467317
C            10.5701035620        9.4890580847        9.9938829540
C             9.4298668380       10.5109536469        9.9939003121
H            10.4368673228        8.8155275202        9.1148963833
H            10.4874336495        8.8587198710       10.8963753116
H             9.5125438538       11.1413262963       10.8963700695
H             9.5630398422       11.1844990240        9.1149166789
H            11.9549068030       10.7355683835        9.1520310329
H            12.6170942496        9.4658434055        9.9518647019
H             8.0451939458        9.2643579656        9.1520883895
H             7.3828376675       10.5340262249        9.9518942628



     Writing config-only to output data dir ethylendiamine/ethylendiamine.save/
     NEW-OLD atomic charge density approx. for the potential

     negative rho (up, down):  7.704E-03 0.000E+00

     total cpu time spent up to now is      622.0 secs

     Self-consistent Calculation

     iteration #  1     ecut=    40.00 Ry     beta= 0.60
     Davidson diagonalization with overlap
     ethr =  1.00E-06,  avg # of iterations =  4.0

     negative rho (up, down):  7.678E-03 0.000E+00

     total cpu time spent up to now is      635.5 secs

     total energy              =     -72.72872165 Ry
     estimated scf accuracy    <       0.00013096 Ry

     iteration #  2     ecut=    40.00 Ry     beta= 0.60
     Davidson diagonalization with overlap
     ethr =  5.04E-07,  avg # of iterations =  1.0

     negative rho (up, down):  7.639E-03 0.000E+00

     total cpu time spent up to now is      645.5 secs

     total energy              =     -72.72871600 Ry
     estimated scf accuracy    <       0.00003581 Ry

     iteration #  3     ecut=    40.00 Ry     beta= 0.60
     Davidson diagonalization with overlap
     ethr =  1.38E-07,  avg # of iterations =  2.0

     negative rho (up, down):  7.603E-03 0.000E+00

     total cpu time spent up to now is      656.6 secs

     total energy              =     -72.72872138 Ry
     estimated scf accuracy    <       0.00000154 Ry

     iteration #  4     ecut=    40.00 Ry     beta= 0.60
     Davidson diagonalization with overlap
     ethr =  5.91E-09,  avg # of iterations =  2.0

     negative rho (up, down):  7.542E-03 0.000E+00

     total cpu time spent up to now is      667.5 secs

     total energy              =     -72.72872204 Ry
     estimated scf accuracy    <       0.00000061 Ry

     iteration #  5     ecut=    40.00 Ry     beta= 0.60
     Davidson diagonalization with overlap
     ethr =  2.36E-09,  avg # of iterations =  2.0

     negative rho (up, down):  7.526E-03 0.000E+00

     total cpu time spent up to now is      678.6 secs

     total energy              =     -72.72872239 Ry
     estimated scf accuracy    <       0.00000024 Ry

     iteration #  6     ecut=    40.00 Ry     beta= 0.60
     Davidson diagonalization with overlap
     ethr =  9.13E-10,  avg # of iterations =  2.0

     negative rho (up, down):  7.523E-03 0.000E+00

     total cpu time spent up to now is      689.6 secs

     total energy              =     -72.72872250 Ry
     estimated scf accuracy    <       0.00000009 Ry

     iteration #  7     ecut=    40.00 Ry     beta= 0.60
     Davidson diagonalization with overlap
     ethr =  3.46E-10,  avg # of iterations =  1.0

     negative rho (up, down):  7.569E-03 0.000E+00

     total cpu time spent up to now is      699.9 secs

     total energy              =     -72.72872248 Ry
     estimated scf accuracy    <       0.00000006 Ry

     iteration #  8     ecut=    40.00 Ry     beta= 0.60
     Davidson diagonalization with overlap
     ethr =  2.35E-10,  avg # of iterations =  2.0

     negative rho (up, down):  7.611E-03 0.000E+00

     total cpu time spent up to now is      710.8 secs

     total energy              =     -72.72872246 Ry
     estimated scf accuracy    <       0.00000002 Ry

     iteration #  9     ecut=    40.00 Ry     beta= 0.60
     Davidson diagonalization with overlap
     ethr =  9.41E-11,  avg # of iterations =  2.0

     negative rho (up, down):  7.671E-03 0.000E+00

     total cpu time spent up to now is      721.9 secs

     total energy              =     -72.72872247 Ry
     estimated scf accuracy    <       0.00000002 Ry

     iteration # 10     ecut=    40.00 Ry     beta= 0.60
     Davidson diagonalization with overlap
     ethr =  6.13E-11,  avg # of iterations =  2.0

     negative rho (up, down):  7.720E-03 0.000E+00

     total cpu time spent up to now is      729.7 secs

     End of self-consistent calculation

          k = 0.0000 0.0000 0.0000 (115195 PWs)   bands (ev):

   -22.1355 -21.4859 -17.2071 -14.5390 -12.1787 -11.7651 -10.7952 -10.7354
    -9.4930  -8.4588  -8.3307  -5.6113  -5.4422  -0.7015  -0.4625  -0.1344
    -0.0783

     the Fermi energy is    -2.7334 ev

!    total energy              =     -72.72872254 Ry
     estimated scf accuracy    <          6.0E-09 Ry
     smearing contrib. (-TS)   =       0.00000000 Ry
     internal energy E=F+TS    =     -72.72872254 Ry

     The total energy is F=E-TS. E is the sum of the following terms:
     one-electron contribution =    -314.95576385 Ry
     hartree contribution      =     160.79972100 Ry
     xc contribution           =     -23.74463174 Ry
     ewald contribution        =     105.18466769 Ry
     Dispersion Correction     =      -0.01271564 Ry

     convergence has been achieved in  10 iterations

     negative rho (up, down):  7.720E-03 0.000E+00

     Forces acting on atoms (cartesian axes, Ry/au):

     atom    1 type  4   force =    -0.00608095   -0.00733224   -0.00258998
     atom    2 type  4   force =     0.00606694    0.00740739   -0.00252022
     atom    3 type  2   force =    -0.00446265    0.00472830   -0.00035353
     atom    4 type  2   force =     0.00446273   -0.00472227   -0.00036005
     atom    5 type  3   force =    -0.00156064    0.00032278    0.00115950
     atom    6 type  3   force =    -0.00007980    0.00074406    0.00048299
     atom    7 type  3   force =     0.00007476   -0.00075411    0.00048781
     atom    8 type  3   force =     0.00156481   -0.00032651    0.00115513
     atom    9 type  3   force =     0.00266341    0.00256555   -0.00074893
     atom   10 type  3   force =     0.00151556    0.00375454    0.00205096
     atom   11 type  3   force =    -0.00267811   -0.00260505   -0.00081165
     atom   12 type  3   force =    -0.00148605   -0.00378244    0.00204796

     Total force =     0.018967     Total SCF correction =     0.000046
     Energy error            =      5.5E-04 Ry
     Gradient error          =      7.4E-03 Ry/Bohr

     number of scf cycles    =   5
     number of bfgs steps    =   4

     energy             old  =     -72.7281701523 Ry
     energy             new  =     -72.7287225389 Ry

     CASE: energy            _new < energy            _old

     new trust radius        =       0.0311772590 bohr
     new conv_thr            =       0.0000000148 Ry


ATOMIC_POSITIONS (angstrom)
N            11.8710386025       10.1712416998       10.0059315149
N             8.1289517183        9.8286870845       10.0059516065
C            10.5669901601        9.4898359910        9.9906073671
C             9.4329852779       10.5101632164        9.9906234909
H            10.4206844586        8.8131840999        9.1169999163
H            10.4849249864        8.8645892145       10.8944389503
H             9.5150434228       11.1354646023       10.8944125044
H             9.5792302015       11.1868492257        9.1170480059
H            11.9615548644       10.7388675701        9.1541824192
H            12.6224162696        9.4743207726        9.9561198814
H             8.0385359171        9.2610384038        9.1542290908
H             7.3775441207       10.5255581195        9.9561552523



     Writing config-only to output data dir ethylendiamine/ethylendiamine.save/
     NEW-OLD atomic charge density approx. for the potential

     negative rho (up, down):  7.727E-03 0.000E+00

     total cpu time spent up to now is      739.1 secs

     Self-consistent Calculation

     iteration #  1     ecut=    40.00 Ry     beta= 0.60
     Davidson diagonalization with overlap
     ethr =  1.00E-06,  avg # of iterations =  5.0

     negative rho (up, down):  7.551E-03 0.000E+00

     total cpu time spent up to now is      753.8 secs

     total energy              =     -72.72914886 Ry
     estimated scf accuracy    <       0.00017056 Ry

     iteration #  2     ecut=    40.00 Ry     beta= 0.60
     Davidson diagonalization with overlap
     ethr =  6.56E-07,  avg # of iterations =  1.0

     negative rho (up, down):  7.346E-03 0.000E+00

     total cpu time spent up to now is      763.6 secs

     total energy              =     -72.72914057 Ry
     estimated scf accuracy    <       0.00004805 Ry

     iteration #  3     ecut=    40.00 Ry     beta= 0.60
     Davidson diagonalization with overlap
     ethr =  1.85E-07,  avg # of iterations =  2.0

     negative rho (up, down):  7.297E-03 0.000E+00

     total cpu time spent up to now is      774.8 secs

     total energy              =     -72.72914676 Ry
     estimated scf accuracy    <       0.00000364 Ry

     iteration #  4     ecut=    40.00 Ry     beta= 0.60
     Davidson diagonalization with overlap
     ethr =  1.40E-08,  avg # of iterations =  2.0

     negative rho (up, down):  7.251E-03 0.000E+00

     total cpu time spent up to now is      785.7 secs

     total energy              =     -72.72914752 Ry
     estimated scf accuracy    <       0.00000153 Ry

     iteration #  5     ecut=    40.00 Ry     beta= 0.60
     Davidson diagonalization with overlap
     ethr =  5.88E-09,  avg # of iterations =  2.0

     negative rho (up, down):  7.257E-03 0.000E+00

     total cpu time spent up to now is      796.6 secs

     total energy              =     -72.72914846 Ry
     estimated scf accuracy    <       0.00000067 Ry

     iteration #  6     ecut=    40.00 Ry     beta= 0.60
     Davidson diagonalization with overlap
     ethr =  2.59E-09,  avg # of iterations =  2.0

     negative rho (up, down):  7.292E-03 0.000E+00

     total cpu time spent up to now is      807.5 secs

     total energy              =     -72.72914859 Ry
     estimated scf accuracy    <       0.00000031 Ry

     iteration #  7     ecut=    40.00 Ry     beta= 0.60
     Davidson diagonalization with overlap
     ethr =  1.19E-09,  avg # of iterations =  2.0

     negative rho (up, down):  7.470E-03 0.000E+00

     total cpu time spent up to now is      818.4 secs

     total energy              =     -72.72914843 Ry
     estimated scf accuracy    <       0.00000018 Ry

     iteration #  8     ecut=    40.00 Ry     beta= 0.60
     Davidson diagonalization with overlap
     ethr =  7.10E-10,  avg # of iterations =  2.0

     negative rho (up, down):  7.564E-03 0.000E+00

     total cpu time spent up to now is      829.6 secs

     total energy              =     -72.72914846 Ry
     estimated scf accuracy    <       0.00000008 Ry

     iteration #  9     ecut=    40.00 Ry     beta= 0.60
     Davidson diagonalization with overlap
     ethr =  3.26E-10,  avg # of iterations =  2.0

     negative rho (up, down):  7.665E-03 0.000E+00

     total cpu time spent up to now is      840.6 secs

     total energy              =     -72.72914860 Ry
     estimated scf accuracy    <       0.00000005 Ry

     iteration # 10     ecut=    40.00 Ry     beta= 0.60
     Davidson diagonalization with overlap
     ethr =  1.91E-10,  avg # of iterations =  2.0

     negative rho (up, down):  7.706E-03 0.000E+00

     total cpu time spent up to now is      851.5 secs

     total energy              =     -72.72914869 Ry
     estimated scf accuracy    <       0.00000002 Ry

     iteration # 11     ecut=    40.00 Ry     beta= 0.60
     Davidson diagonalization with overlap
     ethr =  8.16E-11,  avg # of iterations =  2.0

     negative rho (up, down):  7.733E-03 0.000E+00

     total cpu time spent up to now is      859.3 secs

     End of self-consistent calculation

          k = 0.0000 0.0000 0.0000 (115195 PWs)   bands (ev):

   -22.1386 -21.4788 -17.2487 -14.5465 -12.1841 -11.8084 -10.7827 -10.7409
    -9.5316  -8.4304  -8.3446  -5.5954  -5.4227  -0.6931  -0.4569  -0.1335
    -0.0764

     the Fermi energy is    -2.7321 ev

!    total energy              =     -72.72914875 Ry
     estimated scf accuracy    <          8.3E-09 Ry
     smearing contrib. (-TS)   =       0.00000000 Ry
     internal energy E=F+TS    =     -72.72914875 Ry

     The total energy is F=E-TS. E is the sum of the following terms:
     one-electron contribution =    -315.32327810 Ry
     hartree contribution      =     160.98604892 Ry
     xc contribution           =     -23.75717212 Ry
     ewald contribution        =     105.37792381 Ry
     Dispersion Correction     =      -0.01267126 Ry

     convergence has been achieved in  11 iterations

     negative rho (up, down):  7.733E-03 0.000E+00

     Forces acting on atoms (cartesian axes, Ry/au):

     atom    1 type  4   force =    -0.00635435   -0.00311703   -0.00328028
     atom    2 type  4   force =     0.00640039    0.00313091   -0.00324776
     atom    3 type  2   force =    -0.00128911    0.00147526   -0.00008749
     atom    4 type  2   force =     0.00127139   -0.00147178   -0.00008701
     atom    5 type  3   force =     0.00070755   -0.00029684   -0.00030600
     atom    6 type  3   force =    -0.00018516   -0.00107459    0.00225780
     atom    7 type  3   force =     0.00018400    0.00106285    0.00227463
     atom    8 type  3   force =    -0.00070314    0.00029397   -0.00032679
     atom    9 type  3   force =     0.00097148    0.00253368   -0.00098736
     atom   10 type  3   force =     0.00208877   -0.00029362    0.00240536
     atom   11 type  3   force =    -0.00098825   -0.00254489   -0.00101055
     atom   12 type  3   force =    -0.00210356    0.00030209    0.00239545

     Total force =     0.013457     Total SCF correction =     0.000068
     Energy error            =      4.3E-04 Ry
     Gradient error          =      6.4E-03 Ry/Bohr

     number of scf cycles    =   6
     number of bfgs steps    =   5

     energy             old  =     -72.7287225389 Ry
     energy             new  =     -72.7291487488 Ry

     CASE: energy            _new < energy            _old

     new trust radius        =       0.0137176702 bohr
     new conv_thr            =       0.0000000128 Ry


ATOMIC_POSITIONS (angstrom)
N            11.8660743634       10.1680208578       10.0017358807
N             8.1339307309        9.8319121944       10.0017680291
C            10.5651394854        9.4894995499        9.9889447748
C             9.4348294633       10.5104954867        9.9889578211
H            10.4136548771        8.8122319930        9.1181860920
H            10.4836242310        8.8668684589       10.8947160897
H             9.5163397340       11.1331829915       10.8946937257
H             9.5862660803       11.1878030957        9.1182328747
H            11.9652070812       10.7418723007        9.1549027426
H            12.6258242534        9.4782937852        9.9597945093
H             8.0348693133        9.2580244643        9.1549410253
H             7.3741403869       10.5215948219        9.9598264352



     Writing config-only to output data dir ethylendiamine/ethylendiamine.save/
     NEW-OLD atomic charge density approx. for the potential

     negative rho (up, down):  7.730E-03 0.000E+00

     total cpu time spent up to now is      869.1 secs

     Self-consistent Calculation

     iteration #  1     ecut=    40.00 Ry     beta= 0.60
     Davidson diagonalization with overlap
     ethr =  1.00E-06,  avg # of iterations =  4.0

     negative rho (up, down):  7.555E-03 0.000E+00

     total cpu time spent up to now is      882.2 secs

     total energy              =     -72.72932960 Ry
     estimated scf accuracy    <       0.00009497 Ry

     iteration #  2     ecut=    40.00 Ry     beta= 0.60
     Davidson diagonalization with overlap
     ethr =  3.65E-07,  avg # of iterations =  2.0

     negative rho (up, down):  7.396E-03 0.000E+00

     total cpu time spent up to now is      893.1 secs

     total energy              =     -72.72932736 Ry
     estimated scf accuracy    <       0.00002474 Ry

     iteration #  3     ecut=    40.00 Ry     beta= 0.60
     Davidson diagonalization with overlap
     ethr =  9.51E-08,  avg # of iterations =  2.0

     negative rho (up, down):  7.333E-03 0.000E+00

     total cpu time spent up to now is      904.4 secs

     total energy              =     -72.72932949 Ry
     estimated scf accuracy    <       0.00000316 Ry

     iteration #  4     ecut=    40.00 Ry     beta= 0.60
     Davidson diagonalization with overlap
     ethr =  1.21E-08,  avg # of iterations =  2.0

     negative rho (up, down):  7.302E-03 0.000E+00

     total cpu time spent up to now is      915.3 secs

     total energy              =     -72.72932997 Ry
     estimated scf accuracy    <       0.00000093 Ry

     iteration #  5     ecut=    40.00 Ry     beta= 0.60
     Davidson diagonalization with overlap
     ethr =  3.58E-09,  avg # of iterations =  2.0

     negative rho (up, down):  7.317E-03 0.000E+00

     total cpu time spent up to now is      926.4 secs

     total energy              =     -72.72933049 Ry
     estimated scf accuracy    <       0.00000042 Ry

     iteration #  6     ecut=    40.00 Ry     beta= 0.60
     Davidson diagonalization with overlap
     ethr =  1.62E-09,  avg # of iterations =  2.0

     negative rho (up, down):  7.377E-03 0.000E+00

     total cpu time spent up to now is      937.1 secs

     total energy              =     -72.72933056 Ry
     estimated scf accuracy    <       0.00000018 Ry

     iteration #  7     ecut=    40.00 Ry     beta= 0.60
     Davidson diagonalization with overlap
     ethr =  6.96E-10,  avg # of iterations =  2.0

     negative rho (up, down):  7.519E-03 0.000E+00

     total cpu time spent up to now is      948.0 secs

     total energy              =     -72.72933042 Ry
     estimated scf accuracy    <       0.00000011 Ry

     iteration #  8     ecut=    40.00 Ry     beta= 0.60
     Davidson diagonalization with overlap
     ethr =  4.30E-10,  avg # of iterations =  2.0

     negative rho (up, down):  7.626E-03 0.000E+00

     total cpu time spent up to now is      959.1 secs

     total energy              =     -72.72933050 Ry
     estimated scf accuracy    <       0.00000004 Ry

     iteration #  9     ecut=    40.00 Ry     beta= 0.60
     Davidson diagonalization with overlap
     ethr =  1.66E-10,  avg # of iterations =  2.0

     negative rho (up, down):  7.669E-03 0.000E+00

     total cpu time spent up to now is      970.3 secs

     total energy              =     -72.72933054 Ry
     estimated scf accuracy    <       0.00000003 Ry

     iteration # 10     ecut=    40.00 Ry     beta= 0.60
     Davidson diagonalization with overlap
     ethr =  1.16E-10,  avg # of iterations =  2.0

     negative rho (up, down):  7.725E-03 0.000E+00

     total cpu time spent up to now is      978.5 secs

     End of self-consistent calculation

          k = 0.0000 0.0000 0.0000 (115195 PWs)   bands (ev):

   -22.1457 -21.4748 -17.2522 -14.5524 -12.1886 -11.8320 -10.7759 -10.7459
    -9.5704  -8.4218  -8.3401  -5.5685  -5.3909  -0.6878  -0.4540  -0.1327
    -0.0754

     the Fermi energy is    -2.7322 ev

!    total energy              =     -72.72933065 Ry
     estimated scf accuracy    <       0.00000001 Ry
     smearing contrib. (-TS)   =       0.00000000 Ry
     internal energy E=F+TS    =     -72.72933065 Ry

     The total energy is F=E-TS. E is the sum of the following terms:
     one-electron contribution =    -315.67305868 Ry
     hartree contribution      =     161.16538313 Ry
     xc contribution           =     -23.76437005 Ry
     ewald contribution        =     105.55535814 Ry
     Dispersion Correction     =      -0.01264320 Ry

     convergence has been achieved in  10 iterations

     negative rho (up, down):  7.725E-03 0.000E+00

     Forces acting on atoms (cartesian axes, Ry/au):

     atom    1 type  4   force =     0.00015481   -0.00140614   -0.00301104
     atom    2 type  4   force =    -0.00015256    0.00140171   -0.00301848
     atom    3 type  2   force =    -0.00107559   -0.00019294    0.00055387
     atom    4 type  2   force =     0.00108071    0.00021077    0.00056126
     atom    5 type  3   force =     0.00085077   -0.00146777   -0.00155131
     atom    6 type  3   force =    -0.00024286   -0.00131821    0.00208468
     atom    7 type  3   force =     0.00024256    0.00130325    0.00209462
     atom    8 type  3   force =    -0.00084836    0.00146257   -0.00157005
     atom    9 type  3   force =    -0.00060963    0.00171868   -0.00070303
     atom   10 type  3   force =    -0.00045221    0.00008438    0.00262834
     atom   11 type  3   force =     0.00060064   -0.00170800   -0.00069120
     atom   12 type  3   force =     0.00045172   -0.00008829    0.00262233

     Total force =     0.008359     Total SCF correction =     0.000066
     Energy error            =      1.8E-04 Ry
     Gradient error          =      3.0E-03 Ry/Bohr

     number of scf cycles    =   7
     number of bfgs steps    =   6

     energy             old  =     -72.7291487488 Ry
     energy             new  =     -72.7293306543 Ry

     CASE: energy            _new < energy            _old

     new trust radius        =       0.0092617009 bohr
     new conv_thr            =       0.0000000060 Ry


ATOMIC_POSITIONS (angstrom)
N            11.8641894545       10.1657081533        9.9978514169
N             8.1358224255        9.8342201349        9.9978801637
C            10.5635918894        9.4891889770        9.9887615934
C             9.4363788667       10.5108175510        9.9887793116
H            10.4117859063        8.8110297939        9.1177347186
H            10.4830192277        8.8668847900       10.8961111075
H             9.5169429940       11.1331552858       10.8960970972
H             9.5881391191       11.1890024656        9.1177676030
H            11.9661640004       10.7440418062        9.1548696974
H            12.6266972579        9.4799428897        9.9629525865
H             8.0339010017        9.2558606454        9.1549156948
H             7.3732678569       10.5199475071        9.9629790094



     Writing config-only to output data dir ethylendiamine/ethylendiamine.save/
     NEW-OLD atomic charge density approx. for the potential

     negative rho (up, down):  7.721E-03 0.000E+00

     total cpu time spent up to now is      988.8 secs

     Self-consistent Calculation

     iteration #  1     ecut=    40.00 Ry     beta= 0.60
     Davidson diagonalization with overlap
     ethr =  1.00E-06,  avg # of iterations =  3.0

     negative rho (up, down):  7.635E-03 0.000E+00

     total cpu time spent up to now is     1001.4 secs

     total energy              =     -72.72940790 Ry
     estimated scf accuracy    <       0.00004030 Ry

     iteration #  2     ecut=    40.00 Ry     beta= 0.60
     Davidson diagonalization with overlap
     ethr =  1.55E-07,  avg # of iterations =  2.0

     negative rho (up, down):  7.577E-03 0.000E+00

     total cpu time spent up to now is     1012.8 secs

     total energy              =     -72.72941128 Ry
     estimated scf accuracy    <       0.00000786 Ry

     iteration #  3     ecut=    40.00 Ry     beta= 0.60
     Davidson diagonalization with overlap
     ethr =  3.02E-08,  avg # of iterations =  2.0

     negative rho (up, down):  7.542E-03 0.000E+00

     total cpu time spent up to now is     1024.1 secs

     total energy              =     -72.72941152 Ry
     estimated scf accuracy    <       0.00000189 Ry

     iteration #  4     ecut=    40.00 Ry     beta= 0.60
     Davidson diagonalization with overlap
     ethr =  7.27E-09,  avg # of iterations =  2.0

     negative rho (up, down):  7.526E-03 0.000E+00

     total cpu time spent up to now is     1035.3 secs

     total energy              =     -72.72941174 Ry
     estimated scf accuracy    <       0.00000032 Ry

     iteration #  5     ecut=    40.00 Ry     beta= 0.60
     Davidson diagonalization with overlap
     ethr =  1.24E-09,  avg # of iterations =  2.0

     negative rho (up, down):  7.527E-03 0.000E+00

     total cpu time spent up to now is     1046.2 secs

     total energy              =     -72.72941192 Ry
     estimated scf accuracy    <       0.00000014 Ry

     iteration #  6     ecut=    40.00 Ry     beta= 0.60
     Davidson diagonalization with overlap
     ethr =  5.38E-10,  avg # of iterations =  2.0

     negative rho (up, down):  7.554E-03 0.000E+00

     total cpu time spent up to now is     1057.0 secs

     total energy              =     -72.72941193 Ry
     estimated scf accuracy    <       0.00000007 Ry

     iteration #  7     ecut=    40.00 Ry     beta= 0.60
     Davidson diagonalization with overlap
     ethr =  2.72E-10,  avg # of iterations =  2.0

     negative rho (up, down):  7.598E-03 0.000E+00

     total cpu time spent up to now is     1068.1 secs

     total energy              =     -72.72941191 Ry
     estimated scf accuracy    <       0.00000006 Ry

     iteration #  8     ecut=    40.00 Ry     beta= 0.60
     Davidson diagonalization with overlap
     ethr =  2.12E-10,  avg # of iterations =  2.0

     negative rho (up, down):  7.648E-03 0.000E+00

     total cpu time spent up to now is     1079.2 secs

     total energy              =     -72.72941191 Ry
     estimated scf accuracy    <       0.00000002 Ry

     iteration #  9     ecut=    40.00 Ry     beta= 0.60
     Davidson diagonalization with overlap
     ethr =  6.33E-11,  avg # of iterations =  2.0

     negative rho (up, down):  7.690E-03 0.000E+00

     total cpu time spent up to now is     1090.5 secs

     total energy              =     -72.72941192 Ry
     estimated scf accuracy    <       0.00000001 Ry

     iteration # 10     ecut=    40.00 Ry     beta= 0.60
     Davidson diagonalization with overlap
     ethr =  4.11E-11,  avg # of iterations =  1.0

     negative rho (up, down):  7.724E-03 0.000E+00

     total cpu time spent up to now is     1097.6 secs

     End of self-consistent calculation

          k = 0.0000 0.0000 0.0000 (115195 PWs)   bands (ev):

   -22.1447 -21.4688 -17.2541 -14.5501 -12.1962 -11.8459 -10.7705 -10.7503
    -9.5848  -8.4189  -8.3503  -5.5451  -5.3666  -0.6837  -0.4509  -0.1322
    -0.0757

     the Fermi energy is    -2.7323 ev

!    total energy              =     -72.72941198 Ry
     estimated scf accuracy    <          3.6E-09 Ry
     smearing contrib. (-TS)   =       0.00000000 Ry
     internal energy E=F+TS    =     -72.72941198 Ry

     The total energy is F=E-TS. E is the sum of the following terms:
     one-electron contribution =    -315.79466486 Ry
     hartree contribution      =     161.22825374 Ry
     xc contribution           =     -23.76664985 Ry
     ewald contribution        =     105.61628621 Ry
     Dispersion Correction     =      -0.01263722 Ry

     convergence has been achieved in  10 iterations

     negative rho (up, down):  7.724E-03 0.000E+00

     Forces acting on atoms (cartesian axes, Ry/au):

     atom    1 type  4   force =     0.00069744    0.00032574   -0.00117476
     atom    2 type  4   force =    -0.00070905   -0.00030223   -0.00116327
     atom    3 type  2   force =     0.00062057   -0.00225061   -0.00011439
     atom    4 type  2   force =    -0.00061443    0.00225198   -0.00012874
     atom    5 type  3   force =     0.00039439   -0.00118873   -0.00072055
     atom    6 type  3   force =    -0.00016700   -0.00064030    0.00095614
     atom    7 type  3   force =     0.00016696    0.00063523    0.00097215
     atom    8 type  3   force =    -0.00039383    0.00118423   -0.00072960
     atom    9 type  3   force =    -0.00102352    0.00118418   -0.00109530
     atom   10 type  3   force =    -0.00013736   -0.00077728    0.00215160
     atom   11 type  3   force =     0.00101865   -0.00118578   -0.00110176
     atom   12 type  3   force =     0.00014718    0.00076357    0.00214849

     Total force =     0.006288     Total SCF correction =     0.000020
     Energy error            =      8.1E-05 Ry
     Gradient error          =      2.3E-03 Ry/Bohr

     number of scf cycles    =   8
     number of bfgs steps    =   7

     energy             old  =     -72.7293306543 Ry
     energy             new  =     -72.7294119800 Ry

     CASE: energy            _new < energy            _old

     new trust radius        =       0.0068551021 bohr
     new conv_thr            =       0.0000000045 Ry


ATOMIC_POSITIONS (angstrom)
N            11.8629792316       10.1643312439        9.9947211294
N             8.1370301531        9.8356189507        9.9947643195
C            10.5630778123        9.4876341026        9.9885029688
C             9.4368969828       10.5123786430        9.9885109447
H            10.4109935095        8.8094405980        9.1169907064
H            10.4825510381        8.8663961720       10.8977040551
H             9.5174098891       11.1336333286       10.8977081898
H             9.5889344926       11.1905865094        9.1170083114
H            11.9660511730       10.7463602615        9.1538640199
H            12.6273640632        9.4802712224        9.9665010830
H             8.0340024145        9.2535400496        9.1539027416
H             7.3726092403       10.5196089183        9.9665215304



     Writing config-only to output data dir ethylendiamine/ethylendiamine.save/
     NEW-OLD atomic charge density approx. for the potential

     negative rho (up, down):  7.721E-03 0.000E+00

     total cpu time spent up to now is     1107.4 secs

     Self-consistent Calculation

     iteration #  1     ecut=    40.00 Ry     beta= 0.60
     Davidson diagonalization with overlap
     ethr =  1.00E-06,  avg # of iterations =  3.0

     Threshold (ethr) on eigenvalues was too large:
     Diagonalizing with lowered threshold

     Davidson diagonalization with overlap
     ethr =  7.57E-08,  avg # of iterations =  2.0

     negative rho (up, down):  7.686E-03 0.000E+00

     total cpu time spent up to now is     1124.7 secs

     total energy              =     -72.72946248 Ry
     estimated scf accuracy    <       0.00002101 Ry

     iteration #  2     ecut=    40.00 Ry     beta= 0.60
     Davidson diagonalization with overlap
     ethr =  8.08E-08,  avg # of iterations =  2.0

     negative rho (up, down):  7.668E-03 0.000E+00

     total cpu time spent up to now is     1135.6 secs

     total energy              =     -72.72946244 Ry
     estimated scf accuracy    <       0.00000460 Ry

     iteration #  3     ecut=    40.00 Ry     beta= 0.60
     Davidson diagonalization with overlap
     ethr =  1.77E-08,  avg # of iterations =  2.0

     negative rho (up, down):  7.657E-03 0.000E+00

     total cpu time spent up to now is     1146.9 secs

     total energy              =     -72.72946296 Ry
     estimated scf accuracy    <       0.00000063 Ry

     iteration #  4     ecut=    40.00 Ry     beta= 0.60
     Davidson diagonalization with overlap
     ethr =  2.42E-09,  avg # of iterations =  2.0

     negative rho (up, down):  7.647E-03 0.000E+00

     total cpu time spent up to now is     1157.7 secs

     total energy              =     -72.72946304 Ry
     estimated scf accuracy    <       0.00000016 Ry

     iteration #  5     ecut=    40.00 Ry     beta= 0.60
     Davidson diagonalization with overlap
     ethr =  6.17E-10,  avg # of iterations =  2.0

     negative rho (up, down):  7.642E-03 0.000E+00

     total cpu time spent up to now is     1169.0 secs

     total energy              =     -72.72946315 Ry
     estimated scf accuracy    <       0.00000006 Ry

     iteration #  6     ecut=    40.00 Ry     beta= 0.60
     Davidson diagonalization with overlap
     ethr =  2.29E-10,  avg # of iterations =  2.0

     negative rho (up, down):  7.646E-03 0.000E+00

     total cpu time spent up to now is     1180.1 secs

     total energy              =     -72.72946318 Ry
     estimated scf accuracy    <       0.00000003 Ry

     iteration #  7     ecut=    40.00 Ry     beta= 0.60
     Davidson diagonalization with overlap
     ethr =  1.10E-10,  avg # of iterations =  2.0

     negative rho (up, down):  7.670E-03 0.000E+00

     total cpu time spent up to now is     1191.0 secs

     total energy              =     -72.72946316 Ry
     estimated scf accuracy    <       0.00000001 Ry

     iteration #  8     ecut=    40.00 Ry     beta= 0.60
     Davidson diagonalization with overlap
     ethr =  5.39E-11,  avg # of iterations =  2.0

     negative rho (up, down):  7.680E-03 0.000E+00

     total cpu time spent up to now is     1202.1 secs

     total energy              =     -72.72946316 Ry
     estimated scf accuracy    <          7.6E-09 Ry

     iteration #  9     ecut=    40.00 Ry     beta= 0.60
     Davidson diagonalization with overlap
     ethr =  2.94E-11,  avg # of iterations =  2.0

     negative rho (up, down):  7.718E-03 0.000E+00

     total cpu time spent up to now is     1210.3 secs

     End of self-consistent calculation

          k = 0.0000 0.0000 0.0000 (115195 PWs)   bands (ev):

   -22.1355 -21.4574 -17.2396 -14.5472 -12.1999 -11.8455 -10.7643 -10.7541
    -9.5883  -8.4234  -8.3471  -5.5290  -5.3474  -0.6814  -0.4494  -0.1319
    -0.0762

     the Fermi energy is    -2.7316 ev

!    total energy              =     -72.72946319 Ry
     estimated scf accuracy    <          4.3E-09 Ry
     smearing contrib. (-TS)   =       0.00000000 Ry
     internal energy E=F+TS    =     -72.72946319 Ry

     The total energy is F=E-TS. E is the sum of the following terms:
     one-electron contribution =    -315.76282350 Ry
     hartree contribution      =     161.21522766 Ry
     xc contribution           =     -23.76345904 Ry
     ewald contribution        =     105.59423860 Ry
     Dispersion Correction     =      -0.01264690 Ry

     convergence has been achieved in   9 iterations

     negative rho (up, down):  7.718E-03 0.000E+00

     Forces acting on atoms (cartesian axes, Ry/au):

     atom    1 type  4   force =     0.00146860    0.00075302   -0.00036822
     atom    2 type  4   force =    -0.00145296   -0.00079966   -0.00040670
     atom    3 type  2   force =     0.00038681   -0.00099489   -0.00042754
     atom    4 type  2   force =    -0.00038515    0.00100132   -0.00041466
     atom    5 type  3   force =    -0.00000026   -0.00104696   -0.00007787
     atom    6 type  3   force =    -0.00002012   -0.00002400   -0.00015131
     atom    7 type  3   force =     0.00002230    0.00001770   -0.00015326
     atom    8 type  3   force =     0.00000184    0.00104576   -0.00008507
     atom    9 type  3   force =    -0.00112726   -0.00020008   -0.00043331
     atom   10 type  3   force =    -0.00039281   -0.00021958    0.00145805
     atom   11 type  3   force =     0.00112847    0.00022479   -0.00039669
     atom   12 type  3   force =     0.00037055    0.00024257    0.00145658

     Total force =     0.004278     Total SCF correction =     0.000034
     Energy error            =      5.1E-05 Ry
     Gradient error          =      1.5E-03 Ry/Bohr

     number of scf cycles    =   9
     number of bfgs steps    =   8

     energy             old  =     -72.7294119800 Ry
     energy             new  =     -72.7294631896 Ry

     CASE: energy            _new < energy            _old

     new trust radius        =       0.0044826963 bohr
     new conv_thr            =       0.0000000029 Ry


ATOMIC_POSITIONS (angstrom)
N            11.8632810436       10.1642331575        9.9933581981
N             8.1367437993        9.8356901269        9.9933802129
C            10.5630531136        9.4868924072        9.9880899537
C             9.4369223621       10.5131274549        9.9881062714
H            10.4106036415        8.8079909049        9.1165333927
H            10.4823398892        8.8661177090       10.8983350968
H             9.5176220085       11.1339026052       10.8983432770
H             9.5893268458       11.1920336546        9.1165395929
H            11.9652877596       10.7471718360        9.1531004834
H            12.6275182667        9.4802133409        9.9688674986
H             8.0347618346        9.2527446550        9.1531616900
H             7.3724394354       10.5196821479        9.9688843325



     Writing config-only to output data dir ethylendiamine/ethylendiamine.save/
     NEW-OLD atomic charge density approx. for the potential

     negative rho (up, down):  7.716E-03 0.000E+00

     total cpu time spent up to now is     1219.4 secs

     Self-consistent Calculation

     iteration #  1     ecut=    40.00 Ry     beta= 0.60
     Davidson diagonalization with overlap
     ethr =  1.00E-06,  avg # of iterations =  2.0

     Threshold (ethr) on eigenvalues was too large:
     Diagonalizing with lowered threshold

     Davidson diagonalization with overlap
     ethr =  1.63E-08,  avg # of iterations =  3.0

     negative rho (up, down):  7.725E-03 0.000E+00

     total cpu time spent up to now is     1237.1 secs

     total energy              =     -72.72948228 Ry
     estimated scf accuracy    <       0.00000607 Ry

     iteration #  2     ecut=    40.00 Ry     beta= 0.60
     Davidson diagonalization with overlap
     ethr =  2.33E-08,  avg # of iterations =  1.0

     negative rho (up, down):  7.742E-03 0.000E+00

     total cpu time spent up to now is     1247.0 secs

     total energy              =     -72.72948210 Ry
     estimated scf accuracy    <       0.00000140 Ry

     iteration #  3     ecut=    40.00 Ry     beta= 0.60
     Davidson diagonalization with overlap
     ethr =  5.38E-09,  avg # of iterations =  2.0

     negative rho (up, down):  7.743E-03 0.000E+00

     total cpu time spent up to now is     1258.2 secs

     total energy              =     -72.72948239 Ry
     estimated scf accuracy    <       0.00000013 Ry

     iteration #  4     ecut=    40.00 Ry     beta= 0.60
     Davidson diagonalization with overlap
     ethr =  5.16E-10,  avg # of iterations =  2.0

     negative rho (up, down):  7.743E-03 0.000E+00

     total cpu time spent up to now is     1269.3 secs

     total energy              =     -72.72948243 Ry
     estimated scf accuracy    <       0.00000004 Ry

     iteration #  5     ecut=    40.00 Ry     beta= 0.60
     Davidson diagonalization with overlap
     ethr =  1.38E-10,  avg # of iterations =  2.0

     negative rho (up, down):  7.738E-03 0.000E+00

     total cpu time spent up to now is     1280.1 secs

     total energy              =     -72.72948246 Ry
     estimated scf accuracy    <       0.00000001 Ry

     iteration #  6     ecut=    40.00 Ry     beta= 0.60
     Davidson diagonalization with overlap
     ethr =  4.25E-11,  avg # of iterations =  2.0

     negative rho (up, down):  7.735E-03 0.000E+00

     total cpu time spent up to now is     1291.3 secs

     total energy              =     -72.72948247 Ry
     estimated scf accuracy    <          5.6E-09 Ry

     iteration #  7     ecut=    40.00 Ry     beta= 0.60
     Davidson diagonalization with overlap
     ethr =  2.16E-11,  avg # of iterations =  2.0

     negative rho (up, down):  7.727E-03 0.000E+00

     total cpu time spent up to now is     1302.2 secs

     total energy              =     -72.72948247 Ry
     estimated scf accuracy    <          3.0E-09 Ry

     iteration #  8     ecut=    40.00 Ry     beta= 0.60
     Davidson diagonalization with overlap
     ethr =  1.14E-11,  avg # of iterations =  2.0

     negative rho (up, down):  7.717E-03 0.000E+00

     total cpu time spent up to now is     1310.3 secs

     End of self-consistent calculation

          k = 0.0000 0.0000 0.0000 (115195 PWs)   bands (ev):

   -22.1280 -21.4508 -17.2323 -14.5436 -12.2030 -11.8430 -10.7598 -10.7579
    -9.5828  -8.4229  -8.3472  -5.5247  -5.3419  -0.6802  -0.4484  -0.1318
    -0.0767

     the Fermi energy is    -2.7311 ev

!    total energy              =     -72.72948247 Ry
     estimated scf accuracy    <          1.5E-09 Ry
     smearing contrib. (-TS)   =       0.00000000 Ry
     internal energy E=F+TS    =     -72.72948247 Ry

     The total energy is F=E-TS. E is the sum of the following terms:
     one-electron contribution =    -315.68195331 Ry
     hartree contribution      =     161.17561315 Ry
     xc contribution           =     -23.76053586 Ry
     ewald contribution        =     105.55005188 Ry
     Dispersion Correction     =      -0.01265832 Ry

     convergence has been achieved in   8 iterations

     negative rho (up, down):  7.717E-03 0.000E+00

     Forces acting on atoms (cartesian axes, Ry/au):

     atom    1 type  4   force =     0.00014302    0.00038987    0.00031516
     atom    2 type  4   force =    -0.00018728   -0.00031445    0.00036056
     atom    3 type  2   force =     0.00033364   -0.00028628   -0.00031653
     atom    4 type  2   force =    -0.00032490    0.00027445   -0.00033827
     atom    5 type  3   force =     0.00003294   -0.00064266    0.00040932
     atom    6 type  3   force =     0.00010707    0.00042358   -0.00082143
     atom    7 type  3   force =    -0.00010772   -0.00042154   -0.00081333
     atom    8 type  3   force =    -0.00003321    0.00063977    0.00041388
     atom    9 type  3   force =    -0.00069826   -0.00063786   -0.00049445
     atom   10 type  3   force =    -0.00003535   -0.00002452    0.00090979
     atom   11 type  3   force =     0.00069761    0.00061113   -0.00053611
     atom   12 type  3   force =     0.00007245   -0.00001149    0.00091143

     Total force =     0.002821     Total SCF correction =     0.000016
     Energy error            =      1.9E-05 Ry
     Gradient error          =      9.1E-04 Ry/Bohr

     number of scf cycles    =  10
     number of bfgs steps    =   9

[...]

     iteration #  4     ecut=    40.00 Ry     beta= 0.60
     Davidson diagonalization with overlap
     ethr =  3.26E-10,  avg # of iterations =  2.0

     negative rho (up, down):  7.736E-03 0.000E+00

     total cpu time spent up to now is     3026.8 secs

     total energy              =     -72.72977106 Ry
     estimated scf accuracy    <       0.00000003 Ry

     iteration #  5     ecut=    40.00 Ry     beta= 0.60
     Davidson diagonalization with overlap
     ethr =  9.98E-11,  avg # of iterations =  2.0

     negative rho (up, down):  7.736E-03 0.000E+00

     total cpu time spent up to now is     3037.6 secs

     total energy              =     -72.72977108 Ry
     estimated scf accuracy    <          6.7E-09 Ry

     iteration #  6     ecut=    40.00 Ry     beta= 0.60
     Davidson diagonalization with overlap
     ethr =  2.58E-11,  avg # of iterations =  2.0

     negative rho (up, down):  7.737E-03 0.000E+00

     total cpu time spent up to now is     3048.7 secs

     total energy              =     -72.72977109 Ry
     estimated scf accuracy    <          3.0E-09 Ry

     iteration #  7     ecut=    40.00 Ry     beta= 0.60
     Davidson diagonalization with overlap
     ethr =  1.15E-11,  avg # of iterations =  2.0

     negative rho (up, down):  7.740E-03 0.000E+00

     total cpu time spent up to now is     3059.6 secs

     total energy              =     -72.72977108 Ry
     estimated scf accuracy    <          1.7E-09 Ry

     iteration #  8     ecut=    40.00 Ry     beta= 0.60
     Davidson diagonalization with overlap
     ethr =  6.71E-12,  avg # of iterations =  2.0

     negative rho (up, down):  7.747E-03 0.000E+00

     total cpu time spent up to now is     3067.5 secs

     End of self-consistent calculation

          k = 0.0000 0.0000 0.0000 (115195 PWs)   bands (ev):

   -22.1092 -21.4440 -17.2174 -14.4994 -12.2417 -11.8219 -10.8649 -10.6134
    -9.5732  -8.3964  -8.3189  -5.5164  -5.3445  -0.6771  -0.4471  -0.1322
    -0.0548

     the Fermi energy is    -2.7096 ev

!    total energy              =     -72.72977109 Ry
     estimated scf accuracy    <          8.0E-10 Ry
     smearing contrib. (-TS)   =       0.00000000 Ry
     internal energy E=F+TS    =     -72.72977109 Ry

     The total energy is F=E-TS. E is the sum of the following terms:
     one-electron contribution =    -315.53953018 Ry
     hartree contribution      =     161.11817457 Ry
     xc contribution           =     -23.76176697 Ry
     ewald contribution        =     105.46588136 Ry
     Dispersion Correction     =      -0.01252986 Ry

     convergence has been achieved in   8 iterations

     negative rho (up, down):  7.747E-03 0.000E+00

     Forces acting on atoms (cartesian axes, Ry/au):

     atom    1 type  4   force =     0.00045052    0.00025358   -0.00036694
     atom    2 type  4   force =    -0.00014937   -0.00020191   -0.00016742
     atom    3 type  2   force =     0.00002119   -0.00015946    0.00017972
     atom    4 type  2   force =    -0.00015974    0.00002344   -0.00002987
     atom    5 type  3   force =     0.00000590   -0.00016226    0.00034149
     atom    6 type  3   force =    -0.00024464   -0.00015039   -0.00019314
     atom    7 type  3   force =     0.00025087    0.00022394   -0.00007804
     atom    8 type  3   force =    -0.00000837    0.00015896    0.00037907
     atom    9 type  3   force =     0.00019914    0.00004500    0.00009518
     atom   10 type  3   force =    -0.00037514    0.00011858   -0.00003999
     atom   11 type  3   force =    -0.00023060   -0.00012393   -0.00007710
     atom   12 type  3   force =     0.00024025   -0.00002556   -0.00004297

     Total force =     0.001213     Total SCF correction =     0.000009
     Energy error            =      4.9E-06 Ry
     Gradient error          =      4.5E-04 Ry/Bohr

     number of scf cycles    =  27
     number of bfgs steps    =  26

     energy             old  =     -72.7297661566 Ry
     energy             new  =     -72.7297710875 Ry

     CASE: energy            _new < energy            _old

     new trust radius        =       0.0039245967 bohr
     new conv_thr            =       0.0000000010 Ry


ATOMIC_POSITIONS (angstrom)
N            11.8613061151       10.1823336860        9.9748298765
N             8.1387244614        9.8176881961        9.9749048860
C            10.5682256365        9.4915380069        9.9825134430
C             9.4317222405       10.5083351271        9.9824588741
H            10.4184588776        8.7973581578        9.1227226873
H            10.4986479530        8.8824728938       10.9003860204
H             9.5013920578       11.1174496346       10.9004211894
H             9.5815560643       11.2025394903        9.1227289749
H            11.9923810489       10.6807141268        9.0861181544
H            12.6316836178        9.5094581539       10.0517565448
H             8.0075126884        9.3192325694        9.0861224420
H             7.3682892386       10.4906799571       10.0517369071



     Writing config-only to output data dir ethylendiamine/ethylendiamine.save/
     NEW-OLD atomic charge density approx. for the potential

     negative rho (up, down):  7.746E-03 0.000E+00

     total cpu time spent up to now is     3076.8 secs

     Self-consistent Calculation

     iteration #  1     ecut=    40.00 Ry     beta= 0.60
     Davidson diagonalization with overlap
     ethr =  1.00E-06,  avg # of iterations =  2.0

     Threshold (ethr) on eigenvalues was too large:
     Diagonalizing with lowered threshold

     Davidson diagonalization with overlap
     ethr =  5.31E-09,  avg # of iterations =  4.0

     negative rho (up, down):  7.743E-03 0.000E+00

     total cpu time spent up to now is     3095.0 secs

     total energy              =     -72.72977258 Ry
     estimated scf accuracy    <       0.00000213 Ry

     iteration #  2     ecut=    40.00 Ry     beta= 0.60
     Davidson diagonalization with overlap
     ethr =  8.18E-09,  avg # of iterations =  1.0

     negative rho (up, down):  7.739E-03 0.000E+00

     total cpu time spent up to now is     3105.0 secs

     total energy              =     -72.72977254 Ry
     estimated scf accuracy    <       0.00000056 Ry

     iteration #  3     ecut=    40.00 Ry     beta= 0.60
     Davidson diagonalization with overlap
     ethr =  2.16E-09,  avg # of iterations =  2.0

     negative rho (up, down):  7.737E-03 0.000E+00

     total cpu time spent up to now is     3115.9 secs

     total energy              =     -72.72977262 Ry
     estimated scf accuracy    <       0.00000002 Ry

     iteration #  4     ecut=    40.00 Ry     beta= 0.60
     Davidson diagonalization with overlap
     ethr =  7.23E-11,  avg # of iterations =  2.0

     negative rho (up, down):  7.735E-03 0.000E+00

     total cpu time spent up to now is     3126.6 secs

     total energy              =     -72.72977263 Ry
     estimated scf accuracy    <          5.8E-09 Ry

     iteration #  5     ecut=    40.00 Ry     beta= 0.60
     Davidson diagonalization with overlap
     ethr =  2.23E-11,  avg # of iterations =  2.0

     negative rho (up, down):  7.735E-03 0.000E+00

     total cpu time spent up to now is     3137.8 secs

     total energy              =     -72.72977263 Ry
     estimated scf accuracy    <          1.7E-09 Ry

     iteration #  6     ecut=    40.00 Ry     beta= 0.60
     Davidson diagonalization with overlap
     ethr =  6.48E-12,  avg # of iterations =  2.0

     negative rho (up, down):  7.748E-03 0.000E+00

     total cpu time spent up to now is     3145.8 secs

     End of self-consistent calculation

          k = 0.0000 0.0000 0.0000 (115195 PWs)   bands (ev):

   -22.1078 -21.4432 -17.2172 -14.4987 -12.2410 -11.8200 -10.8679 -10.6096
    -9.5728  -8.3965  -8.3165  -5.5169  -5.3455  -0.6770  -0.4470  -0.1322
    -0.0543

     the Fermi energy is    -2.7089 ev

!    total energy              =     -72.72977263 Ry
     estimated scf accuracy    <          8.1E-10 Ry
     smearing contrib. (-TS)   =       0.00000000 Ry
     internal energy E=F+TS    =     -72.72977263 Ry

     The total energy is F=E-TS. E is the sum of the following terms:
     one-electron contribution =    -315.52201809 Ry
     hartree contribution      =     161.10980795 Ry
     xc contribution           =     -23.76138751 Ry
     ewald contribution        =     105.45635251 Ry
     Dispersion Correction     =      -0.01252750 Ry

     convergence has been achieved in   6 iterations

     negative rho (up, down):  7.748E-03 0.000E+00

     Forces acting on atoms (cartesian axes, Ry/au):

     atom    1 type  4   force =    -0.00009326   -0.00001970   -0.00003430
     atom    2 type  4   force =    -0.00020052   -0.00002006   -0.00020563
     atom    3 type  2   force =     0.00010086    0.00026045   -0.00005997
     atom    4 type  2   force =     0.00003333   -0.00013274    0.00012633
     atom    5 type  3   force =     0.00004708   -0.00004996    0.00036980
     atom    6 type  3   force =    -0.00012579   -0.00007102   -0.00014226
     atom    7 type  3   force =     0.00011763    0.00001342   -0.00024856
     atom    8 type  3   force =    -0.00004342    0.00005648    0.00034065
     atom    9 type  3   force =     0.00013456    0.00015208   -0.00013948
     atom   10 type  3   force =     0.00000137   -0.00009808   -0.00000967
     atom   11 type  3   force =    -0.00010748   -0.00007403    0.00001685
     atom   12 type  3   force =     0.00013564   -0.00001683   -0.00001377

     Total force =     0.000834     Total SCF correction =     0.000018
     Energy error            =      1.5E-06 Ry
     Gradient error          =      3.7E-04 Ry/Bohr

     number of scf cycles    =  28
     number of bfgs steps    =  27

     energy             old  =     -72.7297710875 Ry
     energy             new  =     -72.7297726345 Ry

     CASE: energy            _new < energy            _old

     new trust radius        =       0.0023179398 bohr
     new conv_thr            =       0.0000000010 Ry


ATOMIC_POSITIONS (angstrom)
N            11.8612324412       10.1826786515        9.9744928833
N             8.1386702751        9.8173234332        9.9744965157
C            10.5683259622        9.4916518487        9.9824379514
C             9.4316801474       10.5082749734        9.9824619166
H            10.4184993005        8.7970243213        9.1231219423
H            10.4984567531        8.8825329389       10.9003329659
H             9.5015805968       11.1173673828       10.9003216263
H             9.5815196584       11.2028761173        9.1231181182
H            11.9928975497       10.6800616582        9.0852170099
H            12.6315998571        9.5099056687       10.0527170154
H             8.0070046192        9.3199225962        9.0852897469
H             7.3684328392       10.4901804098       10.0526923082



     Writing config-only to output data dir ethylendiamine/ethylendiamine.save/
     NEW-OLD atomic charge density approx. for the potential

     negative rho (up, down):  7.747E-03 0.000E+00

     total cpu time spent up to now is     3155.2 secs

     Self-consistent Calculation

     iteration #  1     ecut=    40.00 Ry     beta= 0.60
     Davidson diagonalization with overlap
     ethr =  1.00E-06,  avg # of iterations =  2.0

     Threshold (ethr) on eigenvalues was too large:
     Diagonalizing with lowered threshold

     Davidson diagonalization with overlap
     ethr =  2.21E-09,  avg # of iterations =  3.0

     negative rho (up, down):  7.743E-03 0.000E+00

     total cpu time spent up to now is     3172.8 secs

     total energy              =     -72.72977334 Ry
     estimated scf accuracy    <       0.00000083 Ry

     iteration #  2     ecut=    40.00 Ry     beta= 0.60
     Davidson diagonalization with overlap
     ethr =  3.18E-09,  avg # of iterations =  1.0

     negative rho (up, down):  7.735E-03 0.000E+00

     total cpu time spent up to now is     3182.9 secs

     total energy              =     -72.72977332 Ry
     estimated scf accuracy    <       0.00000022 Ry

     iteration #  3     ecut=    40.00 Ry     beta= 0.60
     Davidson diagonalization with overlap
     ethr =  8.43E-10,  avg # of iterations =  2.0

     negative rho (up, down):  7.733E-03 0.000E+00

     total cpu time spent up to now is     3194.0 secs

     total energy              =     -72.72977334 Ry
     estimated scf accuracy    <          8.5E-09 Ry

     iteration #  4     ecut=    40.00 Ry     beta= 0.60
     Davidson diagonalization with overlap
     ethr =  3.29E-11,  avg # of iterations =  2.0

     negative rho (up, down):  7.732E-03 0.000E+00

     total cpu time spent up to now is     3204.9 secs

     total energy              =     -72.72977334 Ry
     estimated scf accuracy    <          2.3E-09 Ry

     iteration #  5     ecut=    40.00 Ry     beta= 0.60
     Davidson diagonalization with overlap
     ethr =  8.99E-12,  avg # of iterations =  2.0

     negative rho (up, down):  7.734E-03 0.000E+00

     total cpu time spent up to now is     3215.8 secs

     total energy              =     -72.72977334 Ry
     estimated scf accuracy    <          1.0E-09 Ry

     iteration #  6     ecut=    40.00 Ry     beta= 0.60
     Davidson diagonalization with overlap
     ethr =  3.87E-12,  avg # of iterations =  2.0

     negative rho (up, down):  7.749E-03 0.000E+00

     total cpu time spent up to now is     3223.8 secs

     End of self-consistent calculation

          k = 0.0000 0.0000 0.0000 (115195 PWs)   bands (ev):

   -22.1072 -21.4428 -17.2176 -14.4986 -12.2408 -11.8195 -10.8701 -10.6074
    -9.5735  -8.3970  -8.3146  -5.5167  -5.3457  -0.6768  -0.4469  -0.1322
    -0.0542

     the Fermi energy is    -2.7088 ev

!    total energy              =     -72.72977333 Ry
     estimated scf accuracy    <          4.4E-10 Ry
     smearing contrib. (-TS)   =       0.00000000 Ry
     internal energy E=F+TS    =     -72.72977333 Ry

     The total energy is F=E-TS. E is the sum of the following terms:
     one-electron contribution =    -315.51857793 Ry
     hartree contribution      =     161.10833276 Ry
     xc contribution           =     -23.76145922 Ry
     ewald contribution        =     105.45445576 Ry
     Dispersion Correction     =      -0.01252471 Ry

     convergence has been achieved in   6 iterations

     negative rho (up, down):  7.749E-03 0.000E+00

     Forces acting on atoms (cartesian axes, Ry/au):

     atom    1 type  4   force =     0.00001133   -0.00007834   -0.00006676
     atom    2 type  4   force =     0.00011599    0.00009442    0.00001091
     atom    3 type  2   force =    -0.00003188    0.00021738    0.00002944
     atom    4 type  2   force =    -0.00002364   -0.00026692   -0.00003838
     atom    5 type  3   force =     0.00005755   -0.00003358    0.00023327
     atom    6 type  3   force =    -0.00000935    0.00003449   -0.00014600
     atom    7 type  3   force =     0.00001092   -0.00000825   -0.00010708
     atom    8 type  3   force =    -0.00005963    0.00003440    0.00024348
     atom    9 type  3   force =     0.00007097    0.00006812   -0.00002301
     atom   10 type  3   force =     0.00000246   -0.00004746   -0.00002124
     atom   11 type  3   force =    -0.00008224   -0.00010188   -0.00009463
     atom   12 type  3   force =    -0.00006248    0.00008762   -0.00002001

     Total force =     0.000603     Total SCF correction =     0.000014
     Energy error            =      7.0E-07 Ry
     Gradient error          =      2.7E-04 Ry/Bohr

     bfgs converged in  29 scf cycles and  28 bfgs steps
     (criteria: energy <  1.0E-06 Ry, force <  5.0E-04 Ry/Bohr)

     End of BFGS Geometry Optimization

     Final energy             =     -72.7297733344 Ry

     File ethylendiamine/ethylendiamine.bfgs deleted, as requested
Begin final coordinates

ATOMIC_POSITIONS (angstrom)
N            11.8612324412       10.1826786515        9.9744928833
N             8.1386702751        9.8173234332        9.9744965157
C            10.5683259622        9.4916518487        9.9824379514
C             9.4316801474       10.5082749734        9.9824619166
H            10.4184993005        8.7970243213        9.1231219423
H            10.4984567531        8.8825329389       10.9003329659
H             9.5015805968       11.1173673828       10.9003216263
H             9.5815196584       11.2028761173        9.1231181182
H            11.9928975497       10.6800616582        9.0852170099
H            12.6315998571        9.5099056687       10.0527170154
H             8.0070046192        9.3199225962        9.0852897469
H             7.3684328392       10.4901804098       10.0526923082
End final coordinates



     Writing all to output data dir ethylendiamine/ethylendiamine.save/

     init_run     :      4.36s CPU      5.78s WALL (       1 calls)
     electrons    :   1982.57s CPU   2978.65s WALL (      29 calls)
     update_pot   :     39.36s CPU     41.51s WALL (      28 calls)
     forces       :     86.82s CPU    131.76s WALL (      29 calls)
     force_london :      0.04s CPU      0.04s WALL (      29 calls)

     Called by init_run:
     wfcinit      :      0.92s CPU      1.36s WALL (       1 calls)
     potinit      :      1.00s CPU      1.11s WALL (       1 calls)
     hinit0       :      0.52s CPU      0.73s WALL (       1 calls)

     Called by electrons:
     c_bands      :    585.44s CPU   1127.21s WALL (     276 calls)
     sum_band     :    258.82s CPU    412.37s WALL (     276 calls)
     v_of_rho     :    200.47s CPU    216.77s WALL (     288 calls)
     newd         :    346.15s CPU    536.63s WALL (     288 calls)
     mix_rho      :    598.90s CPU    687.67s WALL (     276 calls)
     energy_londo :      0.09s CPU      0.12s WALL (      29 calls)

     Called by c_bands:
     init_us_2    :      3.53s CPU      4.44s WALL (     553 calls)
     init_us_2:cp :      3.53s CPU      4.44s WALL (     553 calls)
     regterg      :    571.41s CPU   1095.91s WALL (     276 calls)

     Called by *egterg:
     rdiaghg      :     25.02s CPU     44.63s WALL (     858 calls)
     h_psi        :    363.67s CPU    549.48s WALL (     904 calls)
     s_psi        :      5.08s CPU     11.23s WALL (     904 calls)
     g_psi        :      0.39s CPU      0.40s WALL (     627 calls)

     Called by h_psi:
     h_psi:calbec :     66.72s CPU    200.91s WALL (     904 calls)
     vloc_psi     :    283.80s CPU    303.65s WALL (     904 calls)
     add_vuspsi   :     11.69s CPU     43.26s WALL (     904 calls)

     General routines
     calbec       :     95.57s CPU    284.33s WALL (    1296 calls)
     fft          :    251.15s CPU    272.32s WALL (    3416 calls)
     ffts         :    384.85s CPU    422.17s WALL (    8102 calls)
     fftw         :    281.32s CPU    304.19s WALL (   14362 calls)
     interpolate  :     40.17s CPU     42.51s WALL (     288 calls)

     Parallel routines

     PWSCF        :  35m56.30s CPU  53m51.28s WALL


   This run was terminated on:  15: 6:21   4May2023            

=------------------------------------------------------------------------------=
   JOB DONE.
=------------------------------------------------------------------------------=
Note: The following floating-point exceptions are signalling: IEEE_UNDERFLOW_FLAG IEEE_DENORMAL
Note: The following floating-point exceptions are signalling: IEEE_UNDERFLOW_FLAG IEEE_DENORMAL
Note: The following floating-point exceptions are signalling: IEEE_UNDERFLOW_FLAG IEEE_DENORMAL
Note: The following floating-point exceptions are signalling: IEEE_UNDERFLOW_FLAG IEEE_DENORMAL
Note: The following floating-point exceptions are signalling: IEEE_UNDERFLOW_FLAG IEEE_DENORMAL
Note: The following floating-point exceptions are signalling: IEEE_UNDERFLOW_FLAG IEEE_DENORMAL
Note: The following floating-point exceptions are signalling: IEEE_UNDERFLOW_FLAG IEEE_DENORMAL
Note: The following floating-point exceptions are signalling: IEEE_UNDERFLOW_FLAG IEEE_DENORMAL
