
     Program PWSCF v.7.1 starts on 24Apr2023 at 13:47: 6 

     This program is part of the open-source Quantum ESPRESSO suite
     for quantum simulation of materials; please cite
         "P. Giannozzi et al., J. Phys.:Condens. Matter 21 395502 (2009);
         "P. Giannozzi et al., J. Phys.:Condens. Matter 29 465901 (2017);
         "P. Giannozzi et al., J. Chem. Phys. 152 154105 (2020);
          URL http://www.quantum-espresso.org", 
     in publications or presentations arising from this work. More details at
     http://www.quantum-espresso.org/quote

     Parallel version (MPI), running on     8 processors

     MPI processes distributed on     1 nodes
     23732 MiB available memory on the printing compute node when the environment starts

     Reading input from min_two_layers3.55-relax.in
Warning: card END FINAL COORDINATES ignored

     Current dimensions of program PWSCF are:
     Max number of different atomic species (ntypx) = 10
     Max number of k-points (npk) =  40000
     Max angular momentum in pseudopotentials (lmaxx) =  4

     IMPORTANT: XC functional enforced from input :
     Exchange-correlation= PBE
                           (   1   4   3   4   0   0   0)
     Any further DFT definition will be discarded
     Please, verify this is what you really want

     Message from routine setup:
     using ibrav=0 with symmetry is DISCOURAGED, use correct ibrav instead

     R & G space division:  proc/nbgrp/npool/nimage =       8
     Subspace diagonalization in iterative solution of the eigenvalue problem:
     a serial algorithm will be used


     Parallelization info
     --------------------
     sticks:   dense  smooth     PW     G-vecs:    dense   smooth      PW
     Min         107      86     23                16203    11616    1671
     Max         108      87     24                16218    11639    1682
     Sum         863     691    191               129691    92995   13417

     Using Slab Decomposition



     bravais-lattice index     =            0
     lattice parameter (alat)  =       6.2777  a.u.
     unit-cell volume          =    2717.1744 (a.u.)^3
     number of atoms/cell      =            8
     number of atomic types    =            4
     number of electrons       =        40.00
     number of Kohn-Sham states=           24
     kinetic-energy cutoff     =      40.0000  Ry
     charge density cutoff     =     200.0000  Ry
     scf convergence threshold =      1.0E-07
     mixing beta               =       0.6000
     number of iterations used =            8  local-TF  mixing
     energy convergence thresh.=      1.0E-06
     force convergence thresh. =      5.0E-04
     Exchange-correlation= PBE
                           (   1   4   3   4   0   0   0)
     nstep                     =          120


     celldm(1)=   6.277708  celldm(2)=   0.000000  celldm(3)=   0.000000
     celldm(4)=   0.000000  celldm(5)=   0.000000  celldm(6)=   0.000000

     crystal axes: (cart. coord. in units of alat)
               a(1) = (   1.000000   0.000000   0.000000 )  
               a(2) = (   0.000000   1.374643   0.000000 )  
               a(3) = (   0.000000   0.000000   7.989588 )  

     reciprocal axes: (cart. coord. in units 2 pi/alat)
               b(1) = (  1.000000  0.000000  0.000000 )  
               b(2) = (  0.000000  0.727462  0.000000 )  
               b(3) = (  0.000000  0.000000  0.125163 )  


     PseudoPot. # 1 for P  read from file:
     /home/rrr/espresso/pseudo/p_pbe_v1.5.uspp.F.UPF
     MD5 check sum: eb82b2c351da08c5f5f8709277dc7ee5
     Pseudo is Ultrasoft + core correction, Zval =  5.0
     Generated by new atomic code, or converted to UPF format
     Using radial grid of  903 points,  6 beta functions with: 
                l(1) =   0
                l(2) =   0
                l(3) =   1
                l(4) =   1
                l(5) =   2
                l(6) =   2
     Q(r) pseudized with  8 coefficients,  rinner =    1.300   1.300   1.300
                                                       1.300   1.300

     PseudoPot. # 2 for C  read from file:
     /home/rrr/espresso/pseudo/c_pbe_v1.2.uspp.F.UPF
     MD5 check sum: d1aef80898a10debaa0f26306b886e00
     Pseudo is Ultrasoft + core correction, Zval =  4.0
     Generated by new atomic code, or converted to UPF format
     Using radial grid of  721 points,  4 beta functions with: 
                l(1) =   0
                l(2) =   0
                l(3) =   1
                l(4) =   1
     Q(r) pseudized with  8 coefficients,  rinner =    1.100   1.100   1.100


     PseudoPot. # 3 for H  read from file:
     /home/rrr/espresso/pseudo/h_pbe_v1.4.uspp.F.UPF
     MD5 check sum: 761ae9a214b05c3daf00ab9f6b793d6f
     Pseudo is Ultrasoft, Zval =  1.0
     Generated by new atomic code, or converted to UPF format
     Using radial grid of  615 points,  2 beta functions with: 
                l(1) =   0
                l(2) =   0
     Q(r) pseudized with  8 coefficients,  rinner =    0.700

     PseudoPot. # 4 for N  read from file:
     /home/rrr/espresso/pseudo/n_pbe_v1.2.uspp.F.UPF
     MD5 check sum: 95339753478d7afb44899504a8723017
     Pseudo is Ultrasoft + core correction, Zval =  5.0
     Generated by new atomic code, or converted to UPF format
     Using radial grid of  729 points,  4 beta functions with: 
                l(1) =   0
                l(2) =   0
                l(3) =   1
                l(4) =   1
     Q(r) pseudized with  8 coefficients,  rinner =    0.900   0.900   0.900


     atomic species   valence    mass     pseudopotential
        P              5.00     1.00000     P ( 1.00)
        C              4.00     1.00000     C ( 1.00)
        H              1.00     1.00000     H ( 1.00)
        N              5.00     1.00000     N ( 1.00)

      4 Sym. Ops. (no inversion) found ( 2 have fractional translation)



   Cartesian axes

     site n.     atom                  positions (alat units)
         1           P   tau(   1) = (   0.0000000   0.8054993   3.0608934  )
         2           P   tau(   2) = (   0.5000000   1.2564645   3.0608934  )
         3           P   tau(   3) = (   0.0000000   0.5691432   3.7039428  )
         4           P   tau(   4) = (   0.5000000   0.1181780   3.7039428  )
         5           P   tau(   5) = (   0.0000000   0.8054993   4.7728036  )
         6           P   tau(   6) = (   0.5000000   1.2564645   4.7728036  )
         7           P   tau(   7) = (   0.0000000   0.5691432   5.4158530  )
         8           P   tau(   8) = (   0.5000000   0.1181780   5.4158530  )

     -------------------------------------------------
     Parameters for Dispersion (Grimme-D2) Correction:
     -------------------------------------------------
       atom      VdW radius       C_6     

        P          3.222        271.980
        C          2.744         60.710
        H          1.892          4.857
        N          2.640         42.670

     number of k points=     1  Fermi-Dirac smearing, width (Ry)=  0.0010
                       cart. coord. in units 2pi/alat
        k(    1) = (   0.2500000   0.1818655  -0.0625814), wk =   2.0000000

     Dense  grid:   129691 G-vectors     FFT dimensions: (  30,  40, 225)

     Smooth grid:    92995 G-vectors     FFT dimensions: (  30,  36, 216)

     Estimated max dynamical RAM per process >      70.44 MB

     Estimated total dynamical RAM >     563.56 MB

     Initial potential from superposition of free atoms

     starting charge      39.9987, renormalised to      40.0000

     negative rho (up, down):  1.825E-04 0.000E+00
     Starting wfcs are   32 randomized atomic wfcs

     total cpu time spent up to now is        2.3 secs

     Self-consistent Calculation

     iteration #  1     ecut=    40.00 Ry     beta= 0.60
     Davidson diagonalization with overlap
     ethr =  1.00E-02,  avg # of iterations =  2.0

     Threshold (ethr) on eigenvalues was too large:
     Diagonalizing with lowered threshold

     Davidson diagonalization with overlap
     ethr =  2.55E-04,  avg # of iterations =  2.0

     negative rho (up, down):  1.021E-05 0.000E+00

     total cpu time spent up to now is       16.5 secs

     total energy              =    -124.37242835 Ry
     estimated scf accuracy    <       0.10555584 Ry

     iteration #  2     ecut=    40.00 Ry     beta= 0.60
     Davidson diagonalization with overlap
     ethr =  2.64E-04,  avg # of iterations =  1.0

     negative rho (up, down):  1.299E-08 0.000E+00

     total cpu time spent up to now is       21.1 secs

     total energy              =    -124.36550776 Ry
     estimated scf accuracy    <       0.03688454 Ry

     iteration #  3     ecut=    40.00 Ry     beta= 0.60
     Davidson diagonalization with overlap
     ethr =  9.22E-05,  avg # of iterations =  2.0

     total cpu time spent up to now is       26.0 secs

     total energy              =    -124.36741703 Ry
     estimated scf accuracy    <       0.00207977 Ry

     iteration #  4     ecut=    40.00 Ry     beta= 0.60
     Davidson diagonalization with overlap
     c_bands:  2 eigenvalues not converged
     ethr =  5.20E-06,  avg # of iterations = 20.0

     total cpu time spent up to now is       47.3 secs

     total energy              =    -124.36823781 Ry
     estimated scf accuracy    <       0.00097674 Ry

     iteration #  5     ecut=    40.00 Ry     beta= 0.60
     Davidson diagonalization with overlap
     ethr =  2.44E-06,  avg # of iterations =  9.0

     total cpu time spent up to now is       57.9 secs

     total energy              =    -124.36809912 Ry
     estimated scf accuracy    <       0.00060955 Ry

     iteration #  6     ecut=    40.00 Ry     beta= 0.60
     Davidson diagonalization with overlap
     ethr =  1.52E-06,  avg # of iterations =  2.0

     negative rho (up, down):  1.143E-04 0.000E+00

     total cpu time spent up to now is       69.3 secs

     total energy              =    -124.36814520 Ry
     estimated scf accuracy    <       0.00024162 Ry

     iteration #  7     ecut=    40.00 Ry     beta= 0.60
     Davidson diagonalization with overlap
     ethr =  6.04E-07,  avg # of iterations =  5.0

     negative rho (up, down):  4.013E-04 0.000E+00

     total cpu time spent up to now is       83.8 secs

     total energy              =    -124.36818848 Ry
     estimated scf accuracy    <       0.00007976 Ry

     iteration #  8     ecut=    40.00 Ry     beta= 0.60
     Davidson diagonalization with overlap
     ethr =  1.99E-07,  avg # of iterations =  5.0

     negative rho (up, down):  3.594E-04 0.000E+00

     total cpu time spent up to now is       97.9 secs

     total energy              =    -124.36823949 Ry
     estimated scf accuracy    <       0.00003221 Ry

     iteration #  9     ecut=    40.00 Ry     beta= 0.60
     Davidson diagonalization with overlap
     ethr =  8.05E-08,  avg # of iterations =  5.0

     negative rho (up, down):  3.544E-04 0.000E+00

     total cpu time spent up to now is      114.5 secs

     total energy              =    -124.36826781 Ry
     estimated scf accuracy    <       0.00000731 Ry

     iteration # 10     ecut=    40.00 Ry     beta= 0.60
     Davidson diagonalization with overlap
     ethr =  1.83E-08,  avg # of iterations =  5.0

     negative rho (up, down):  4.407E-04 0.000E+00

     total cpu time spent up to now is      141.8 secs

     total energy              =    -124.36826942 Ry
     estimated scf accuracy    <       0.00000109 Ry

     iteration # 11     ecut=    40.00 Ry     beta= 0.60
     Davidson diagonalization with overlap
     ethr =  2.73E-09,  avg # of iterations =  5.0

     negative rho (up, down):  4.854E-04 0.000E+00

     total cpu time spent up to now is      160.3 secs

     total energy              =    -124.36826978 Ry
     estimated scf accuracy    <       0.00000034 Ry

     iteration # 12     ecut=    40.00 Ry     beta= 0.60
     Davidson diagonalization with overlap
     ethr =  8.47E-10,  avg # of iterations =  5.0

     negative rho (up, down):  4.836E-04 0.000E+00

     total cpu time spent up to now is      166.5 secs

     End of self-consistent calculation

          k = 0.2500 0.1819-0.0626 ( 11596 PWs)   bands (ev):

   -14.3152 -14.2687 -12.5852 -12.5421  -9.8044  -9.7531  -7.5618  -7.4147
    -6.0826  -6.0439  -5.3156  -5.2642  -4.0149  -3.8033  -3.1377  -2.9772
    -2.1757  -1.9605  -1.8892  -1.4071   1.5915   1.7548   1.7897   1.8871

     the Fermi energy is    -0.0362 ev

!    total energy              =    -124.36826992 Ry
     estimated scf accuracy    <       0.00000002 Ry
     smearing contrib. (-TS)   =       0.00000000 Ry
     internal energy E=F+TS    =    -124.36826992 Ry

     The total energy is F=E-TS. E is the sum of the following terms:
     one-electron contribution =   -1102.68894988 Ry
     hartree contribution      =     559.93261849 Ry
     xc contribution           =     -47.06093722 Ry
     ewald contribution        =     465.53891875 Ry
     Dispersion Correction     =      -0.08992007 Ry

     convergence has been achieved in  12 iterations
Begin final coordinates

ATOMIC_POSITIONS (angstrom)
P             0.0000000000        2.6758847423       10.1683491000    0   0   0
P             1.6610100000        4.1740002577       10.1683491000    0   0   0
P             0.0000000000        1.8907052577       12.3045720000    0   0   0
P             1.6610100000        0.3925897423       12.3045720000    0   0   0
P             0.0000000000        2.6758847423       15.8553491000    0   0   0
P             1.6610100000        4.1740002577       15.8553491000    0   0   0
P             0.0000000000        1.8907052577       17.9915720000    0   0   0
P             1.6610100000        0.3925897423       17.9915720000    0   0   0
End final coordinates



     Writing all to output data dir min_two_layers3.55/min_two_layers3.55.save/

     init_run     :      1.21s CPU      2.02s WALL (       1 calls)
     electrons    :     84.58s CPU    164.42s WALL (       1 calls)

     Called by init_run:
     wfcinit      :      0.31s CPU      0.82s WALL (       1 calls)
     potinit      :      0.19s CPU      0.20s WALL (       1 calls)
     hinit0       :      0.43s CPU      0.57s WALL (       1 calls)

     Called by electrons:
     c_bands      :     28.10s CPU     72.87s WALL (      13 calls)
     sum_band     :      2.84s CPU      6.50s WALL (      13 calls)
     v_of_rho     :      0.38s CPU      0.42s WALL (      13 calls)
     newd         :      1.67s CPU      3.83s WALL (      13 calls)
     mix_rho      :     51.63s CPU     80.70s WALL (      13 calls)
     energy_londo :      0.01s CPU      0.02s WALL (       1 calls)

     Called by c_bands:
     init_us_2    :      0.04s CPU      0.07s WALL (      27 calls)
     init_us_2:cp :      0.04s CPU      0.07s WALL (      27 calls)
     cegterg      :     27.51s CPU     71.54s WALL (      13 calls)

     Called by *egterg:
     cdiaghg      :      3.99s CPU      7.13s WALL (      80 calls)
     h_psi        :      8.90s CPU     25.62s WALL (      82 calls)
     s_psi        :      0.20s CPU      0.55s WALL (      82 calls)
     g_psi        :      0.00s CPU      0.00s WALL (      68 calls)

     Called by h_psi:
     h_psi:calbec :      5.58s CPU     17.64s WALL (      82 calls)
     vloc_psi     :      2.32s CPU      3.05s WALL (      82 calls)
     add_vuspsi   :      0.99s CPU      4.92s WALL (      82 calls)

     General routines
     calbec       :      6.51s CPU     20.35s WALL (      95 calls)
     fft          :      0.38s CPU      0.48s WALL (     168 calls)
     ffts         :     16.83s CPU     24.03s WALL (    2735 calls)
     fftw         :      2.77s CPU      3.63s WALL (    2142 calls)
     interpolate  :      0.03s CPU      0.03s WALL (      13 calls)

     Parallel routines

     PWSCF        :   1m25.94s CPU   2m48.17s WALL


   This run was terminated on:  13:49:54  24Apr2023            

=------------------------------------------------------------------------------=
   JOB DONE.
=------------------------------------------------------------------------------=
