
     Program PWSCF v.7.1 starts on 29Nov2022 at 20:18: 7 

     This program is part of the open-source Quantum ESPRESSO suite
     for quantum simulation of materials; please cite
         "P. Giannozzi et al., J. Phys.:Condens. Matter 21 395502 (2009);
         "P. Giannozzi et al., J. Phys.:Condens. Matter 29 465901 (2017);
         "P. Giannozzi et al., J. Chem. Phys. 152 154105 (2020);
          URL http://www.quantum-espresso.org", 
     in publications or presentations arising from this work. More details at
     http://www.quantum-espresso.org/quote

     Parallel version (MPI), running on     8 processors

     MPI processes distributed on     1 nodes
     30774 MiB available memory on the printing compute node when the environment starts

     Reading input from relax-manual.in
Warning: card END FINAL COORDINATES ignored

     Current dimensions of program PWSCF are:
     Max number of different atomic species (ntypx) = 10
     Max number of k-points (npk) =  40000
     Max angular momentum in pseudopotentials (lmaxx) =  4

     IMPORTANT: XC functional enforced from input :
     Exchange-correlation= PBE
                           (   1   4   3   4   0   0   0)
     Any further DFT definition will be discarded
     Please, verify this is what you really want


     R & G space division:  proc/nbgrp/npool/nimage =       8
     Subspace diagonalization in iterative solution of the eigenvalue problem:
     a serial algorithm will be used


     Parallelization info
     --------------------
     sticks:   dense  smooth     PW     G-vecs:    dense   smooth      PW
     Min         970     775    201               123620    88435   11737
     Max         971     776    203               123622    88438   11740
     Sum        7761    6203   1611               988963   707485   93909

     Using Slab Decomposition



     bravais-lattice index     =            0
     lattice parameter (alat)  =      18.8331  a.u.
     unit-cell volume          =   20703.1509 (a.u.)^3
     number of atoms/cell      =           49
     number of atomic types    =            4
     number of electrons       =       218.00
     number of Kohn-Sham states=          131
     kinetic-energy cutoff     =      40.0000  Ry
     charge density cutoff     =     200.0000  Ry
     scf convergence threshold =      1.0E-07
     mixing beta               =       0.6000
     number of iterations used =            8  local-TF  mixing
     energy convergence thresh.=      1.0E-06
     force convergence thresh. =      5.0E-04
     Exchange-correlation= PBE
                           (   1   4   3   4   0   0   0)
     nstep                     =          120


     celldm(1)=  18.833124  celldm(2)=   0.000000  celldm(3)=   0.000000
     celldm(4)=   0.000000  celldm(5)=   0.000000  celldm(6)=   0.000000

     crystal axes: (cart. coord. in units of alat)
               a(1) = (   1.000000   0.000000   0.000000 )  
               a(2) = (   0.000000   1.374643   0.000000 )  
               a(3) = (   0.000000   0.000000   2.254652 )  

     reciprocal axes: (cart. coord. in units 2 pi/alat)
               b(1) = (  1.000000  0.000000  0.000000 )  
               b(2) = (  0.000000  0.727462  0.000000 )  
               b(3) = (  0.000000  0.000000  0.443527 )  


     PseudoPot. # 1 for P  read from file:
     /home/rrr/espresso/pseudo/p_pbe_v1.5.uspp.F.UPF
     MD5 check sum: eb82b2c351da08c5f5f8709277dc7ee5
     Pseudo is Ultrasoft + core correction, Zval =  5.0
     Generated by new atomic code, or converted to UPF format
     Using radial grid of  903 points,  6 beta functions with: 
                l(1) =   0
                l(2) =   0
                l(3) =   1
                l(4) =   1
                l(5) =   2
                l(6) =   2
     Q(r) pseudized with  8 coefficients,  rinner =    1.300   1.300   1.300
                                                       1.300   1.300

     PseudoPot. # 2 for C  read from file:
     /home/rrr/espresso/pseudo/c_pbe_v1.2.uspp.F.UPF
     MD5 check sum: d1aef80898a10debaa0f26306b886e00
     Pseudo is Ultrasoft + core correction, Zval =  4.0
     Generated by new atomic code, or converted to UPF format
     Using radial grid of  721 points,  4 beta functions with: 
                l(1) =   0
                l(2) =   0
                l(3) =   1
                l(4) =   1
     Q(r) pseudized with  8 coefficients,  rinner =    1.100   1.100   1.100


     PseudoPot. # 3 for H  read from file:
     /home/rrr/espresso/pseudo/h_pbe_v1.4.uspp.F.UPF
     MD5 check sum: 761ae9a214b05c3daf00ab9f6b793d6f
     Pseudo is Ultrasoft, Zval =  1.0
     Generated by new atomic code, or converted to UPF format
     Using radial grid of  615 points,  2 beta functions with: 
                l(1) =   0
                l(2) =   0
     Q(r) pseudized with  8 coefficients,  rinner =    0.700

     PseudoPot. # 4 for N  read from file:
     /home/rrr/espresso/pseudo/n_pbe_v1.2.uspp.F.UPF
     MD5 check sum: 95339753478d7afb44899504a8723017
     Pseudo is Ultrasoft + core correction, Zval =  5.0
     Generated by new atomic code, or converted to UPF format
     Using radial grid of  729 points,  4 beta functions with: 
                l(1) =   0
                l(2) =   0
                l(3) =   1
                l(4) =   1
     Q(r) pseudized with  8 coefficients,  rinner =    0.900   0.900   0.900


     atomic species   valence    mass     pseudopotential
        P              5.00     1.00000     P ( 1.00)
        C              4.00     1.00000     C ( 1.00)
        H              1.00     1.00000     H ( 1.00)
        N              5.00     1.00000     N ( 1.00)

     No symmetry found



   Cartesian axes

     site n.     atom                  positions (alat units)
         1           P   tau(   1) = (   0.0000000   0.2684998   1.0202978  )
         2           P   tau(   2) = (   0.1666667   0.4188215   1.0202978  )
         3           P   tau(   3) = (   0.0000000   0.1897144   1.2346476  )
         4           P   tau(   4) = (   0.1666667   0.0393927   1.2346476  )
         5           P   tau(   5) = (   0.0000000   0.7267139   1.0202978  )
         6           P   tau(   6) = (   0.1666667   0.8770357   1.0202978  )
         7           P   tau(   7) = (   0.0000000   0.6479286   1.2346476  )
         8           P   tau(   8) = (   0.1666667   0.4976069   1.2346476  )
         9           P   tau(   9) = (   0.0000000   1.1849281   1.0202978  )
        10           P   tau(  10) = (   0.1666667   1.3352499   1.0202978  )
        11           P   tau(  11) = (   0.0000000   1.1061428   1.2346476  )
        12           P   tau(  12) = (   0.1666667   0.9558210   1.2346476  )
        13           P   tau(  13) = (   0.3333333   0.2684998   1.0202978  )
        14           P   tau(  14) = (   0.5000000   0.4188215   1.0202978  )
        15           P   tau(  15) = (   0.3333333   0.1897144   1.2346476  )
        16           P   tau(  16) = (   0.5000000   0.0393927   1.2346476  )
        17           P   tau(  17) = (   0.3333333   0.7267139   1.0202978  )
        18           P   tau(  18) = (   0.5000000   0.8770357   1.0202978  )
        19           P   tau(  19) = (   0.3333333   0.6479286   1.2346476  )
        20           P   tau(  20) = (   0.5000000   0.4976069   1.2346476  )
        21           P   tau(  21) = (   0.3333333   1.1849281   1.0202978  )
        22           P   tau(  22) = (   0.5000000   1.3352499   1.0202978  )
        23           P   tau(  23) = (   0.3333333   1.1061428   1.2346476  )
        24           P   tau(  24) = (   0.5000000   0.9558210   1.2346476  )
        25           P   tau(  25) = (   0.6666667   0.2684998   1.0202978  )
        26           P   tau(  26) = (   0.8333333   0.4188215   1.0202978  )
        27           P   tau(  27) = (   0.6666667   0.1897144   1.2346476  )
        28           P   tau(  28) = (   0.8333333   0.0393927   1.2346476  )
        29           P   tau(  29) = (   0.6666667   0.7267139   1.0202978  )
        30           P   tau(  30) = (   0.8333333   0.8770357   1.0202978  )
        31           P   tau(  31) = (   0.6666667   0.6479286   1.2346476  )
        32           P   tau(  32) = (   0.8333333   0.4976069   1.2346476  )
        33           P   tau(  33) = (   0.6666667   1.1849281   1.0202978  )
        34           P   tau(  34) = (   0.8333333   1.3352499   1.0202978  )
        35           P   tau(  35) = (   0.6666667   1.1061428   1.2346476  )
        36           P   tau(  36) = (   0.8333333   0.9558210   1.2346476  )
        37           C   tau(  37) = (   0.3772333   0.4976169   1.8898915  )
        38           C   tau(  38) = (   0.3782668   0.4976269   1.7499365  )
        39           C   tau(  39) = (   0.4979230   0.4976169   1.9607721  )
        40           C   tau(  40) = (   0.5000000   0.4976069   1.6808620  )
        41           C   tau(  41) = (   0.6196461   0.4976169   1.8916876  )
        42           C   tau(  42) = (   0.6206796   0.4976169   1.7517426  )
        43           H   tau(  43) = (   0.2824516   0.4976169   1.9436740  )
        44           H   tau(  44) = (   0.2842979   0.4976269   1.6947492  )
        45           H   tau(  45) = (   0.4971102   0.4976069   2.0697519  )
        46           H   tau(  46) = (   0.7136250   0.4976269   1.9468749  )
        47           H   tau(  47) = (   0.7154613   0.4976169   1.6979500  )
        48           N   tau(  48) = (   0.5000000   0.4976069   1.5424924  )
        49           N   tau(  49) = (   0.5000000   0.4976069   1.4328202  )

     -------------------------------------------------
     Parameters for Dispersion (Grimme-D2) Correction:
     -------------------------------------------------
       atom      VdW radius       C_6     

        P          3.222        271.980
        C          2.744         60.710
        H          1.892          4.857
        N          2.640         42.670

     number of k points=     2  Fermi-Dirac smearing, width (Ry)=  0.0010
                       cart. coord. in units 2pi/alat
        k(    1) = (   0.2500000   0.1818655  -0.2217637), wk =   1.0000000
        k(    2) = (  -0.2500000   0.1818655   0.2217637), wk =   1.0000000

     Dense  grid:   988963 G-vectors     FFT dimensions: (  90, 120, 192)

     Smooth grid:   707485 G-vectors     FFT dimensions: (  75, 108, 180)

     Estimated max dynamical RAM per process >     824.76 MB

     Estimated total dynamical RAM >       6.44 GB

     Initial potential from superposition of free atoms

     starting charge     218.9939, renormalised to     218.0000

     negative rho (up, down):  2.709E-03 0.000E+00
     Starting wfcs are  181 randomized atomic wfcs

     total cpu time spent up to now is       17.1 secs

     Self-consistent Calculation

     iteration #  1     ecut=    40.00 Ry     beta= 0.60
     Davidson diagonalization with overlap
     ethr =  1.00E-02,  avg # of iterations =  3.0

     negative rho (up, down):  6.659E-07 0.000E+00

     total cpu time spent up to now is      103.0 secs

     total energy              =    -673.67343019 Ry
     estimated scf accuracy    <       2.29012236 Ry

     iteration #  2     ecut=    40.00 Ry     beta= 0.60
     Davidson diagonalization with overlap
     ethr =  1.05E-03,  avg # of iterations =  2.0

     total cpu time spent up to now is      137.3 secs

     total energy              =    -673.55234747 Ry
     estimated scf accuracy    <       0.85742289 Ry

     iteration #  3     ecut=    40.00 Ry     beta= 0.60
     Davidson diagonalization with overlap
     ethr =  3.93E-04,  avg # of iterations = 12.0

     total cpu time spent up to now is      193.1 secs

     total energy              =    -673.55156299 Ry
     estimated scf accuracy    <       0.21614901 Ry

     iteration #  4     ecut=    40.00 Ry     beta= 0.60
     Davidson diagonalization with overlap
     c_bands:  1 eigenvalues not converged
     c_bands:  1 eigenvalues not converged
     ethr =  9.92E-05,  avg # of iterations = 20.0

     total cpu time spent up to now is      267.2 secs

     total energy              =    -673.55304606 Ry
     estimated scf accuracy    <       0.08251692 Ry

     iteration #  5     ecut=    40.00 Ry     beta= 0.60
     Davidson diagonalization with overlap
     ethr =  3.79E-05,  avg # of iterations =  5.0

     total cpu time spent up to now is      310.9 secs

     total energy              =    -673.55366517 Ry
     estimated scf accuracy    <       0.04035538 Ry

     iteration #  6     ecut=    40.00 Ry     beta= 0.60
     Davidson diagonalization with overlap
     ethr =  1.85E-05,  avg # of iterations =  4.0

     negative rho (up, down):  4.157E-03 0.000E+00

     total cpu time spent up to now is      373.3 secs

     total energy              =    -673.55105991 Ry
     estimated scf accuracy    <       0.02530640 Ry

     iteration #  7     ecut=    40.00 Ry     beta= 0.60
     Davidson diagonalization with overlap
     ethr =  1.16E-05,  avg # of iterations =  2.0

     negative rho (up, down):  4.309E-02 0.000E+00

     total cpu time spent up to now is      418.6 secs

     total energy              =    -673.54861482 Ry
     estimated scf accuracy    <       0.01528202 Ry

     iteration #  8     ecut=    40.00 Ry     beta= 0.60
     Davidson diagonalization with overlap
     c_bands:  2 eigenvalues not converged
     c_bands:  2 eigenvalues not converged
     ethr =  7.01E-06,  avg # of iterations = 20.0

     negative rho (up, down):  3.841E-02 0.000E+00

     total cpu time spent up to now is      523.1 secs

     total energy              =    -673.54752920 Ry
     estimated scf accuracy    <       0.00806869 Ry

     iteration #  9     ecut=    40.00 Ry     beta= 0.60
     Davidson diagonalization with overlap
     ethr =  3.70E-06,  avg # of iterations = 12.0

     negative rho (up, down):  3.066E-02 0.000E+00

     total cpu time spent up to now is      600.7 secs

     total energy              =    -673.54787925 Ry
     estimated scf accuracy    <       0.00158867 Ry

     iteration # 10     ecut=    40.00 Ry     beta= 0.60
     Davidson diagonalization with overlap
     ethr =  7.29E-07,  avg # of iterations =  5.0

     negative rho (up, down):  1.767E-02 0.000E+00

     total cpu time spent up to now is      683.6 secs

     total energy              =    -673.54846762 Ry
     estimated scf accuracy    <       0.00039716 Ry

     iteration # 11     ecut=    40.00 Ry     beta= 0.60
     Davidson diagonalization with overlap
     ethr =  1.82E-07,  avg # of iterations =  5.0

     negative rho (up, down):  6.391E-03 0.000E+00

     total cpu time spent up to now is      755.3 secs

     total energy              =    -673.54842213 Ry
     estimated scf accuracy    <       0.00008713 Ry

     iteration # 12     ecut=    40.00 Ry     beta= 0.60
     Davidson diagonalization with overlap
     ethr =  4.00E-08,  avg # of iterations =  5.5

     negative rho (up, down):  4.097E-03 0.000E+00

     total cpu time spent up to now is      832.2 secs

     total energy              =    -673.54842871 Ry
     estimated scf accuracy    <       0.00001863 Ry

     iteration # 13     ecut=    40.00 Ry     beta= 0.60
     Davidson diagonalization with overlap
     ethr =  8.55E-09,  avg # of iterations =  5.5

     negative rho (up, down):  3.459E-03 0.000E+00

     total cpu time spent up to now is      918.4 secs

     total energy              =    -673.54843190 Ry
     estimated scf accuracy    <       0.00000276 Ry

     iteration # 14     ecut=    40.00 Ry     beta= 0.60
     Davidson diagonalization with overlap
     ethr =  1.27E-09,  avg # of iterations =  5.0

     negative rho (up, down):  3.482E-03 0.000E+00

     total cpu time spent up to now is     1007.4 secs

     total energy              =    -673.54843334 Ry
     estimated scf accuracy    <       0.00000110 Ry

     iteration # 15     ecut=    40.00 Ry     beta= 0.60
     Davidson diagonalization with overlap
     ethr =  5.05E-10,  avg # of iterations =  2.0

     negative rho (up, down):  3.555E-03 0.000E+00

     total cpu time spent up to now is     1074.5 secs

     total energy              =    -673.54843335 Ry
     estimated scf accuracy    <       0.00000023 Ry

     iteration # 16     ecut=    40.00 Ry     beta= 0.60
     Davidson diagonalization with overlap
     ethr =  1.07E-10,  avg # of iterations =  5.0

     negative rho (up, down):  3.671E-03 0.000E+00

     total cpu time spent up to now is     1115.2 secs

     End of self-consistent calculation

          k = 0.2500 0.1819-0.2218 ( 88442 PWs)   bands (ev):

   -28.4210 -21.3446 -19.2032 -17.4548 -17.2091 -16.8677 -16.5794 -16.3635
   -16.2124 -16.0744 -15.7794 -15.6689 -15.3580 -15.1551 -15.0507 -14.9859
   -14.7688 -14.6104 -14.5008 -14.2125 -14.1988 -14.0800 -13.8203 -13.6245
   -13.2330 -12.8084 -12.5710 -12.3392 -12.0273 -11.9630 -11.8827 -11.8159
   -11.6129 -11.4511 -11.3825 -11.3267 -11.0569 -11.0216 -10.9679 -10.8489
   -10.6612 -10.2572 -10.1178  -9.8668  -9.4790  -9.3060  -9.1441  -9.0748
    -8.5555  -8.1826  -8.0671  -7.9646  -7.9096  -7.8458  -7.8128  -7.6117
    -7.5189  -7.4551  -7.4408  -7.4075  -7.3089  -7.1726  -7.1281  -7.0838
    -6.9639  -6.8927  -6.6137  -6.4699  -6.3272  -6.2851  -6.1472  -6.0361
    -6.0192  -5.9147  -5.8096  -5.7705  -5.6439  -5.6048  -5.4618  -5.4325
    -5.3783  -5.3010  -5.2591  -5.2116  -5.2024  -5.1436  -4.8994  -4.8720
    -4.7823  -4.7019  -4.5911  -4.2655  -4.0526  -3.9420  -3.8879  -3.8674
    -3.8310  -3.8228  -3.7926  -3.7567  -3.7244  -3.6025  -3.5078  -3.4289
    -3.1934  -3.0527  -2.9367  -2.7762  -2.5184  -2.2138  -2.1071  -1.1090
    -0.9317  -0.8875  -0.8703  -0.8385  -0.6637  -0.4611  -0.2620  -0.1000
    -0.0666  -0.0593  -0.0255   0.0072   0.0360   0.0755   0.1019   0.1295
     0.1841   0.2435   0.3126

          k =-0.2500 0.1819 0.2218 ( 88442 PWs)   bands (ev):

   -28.4210 -21.3446 -19.2032 -17.4548 -17.2091 -16.8677 -16.5794 -16.3635
   -16.2124 -16.0744 -15.7794 -15.6689 -15.3580 -15.1551 -15.0507 -14.9859
   -14.7689 -14.6104 -14.5008 -14.2129 -14.1983 -14.0800 -13.8204 -13.6245
   -13.2330 -12.8084 -12.5709 -12.3393 -12.0275 -11.9627 -11.8826 -11.8160
   -11.6129 -11.4511 -11.3825 -11.3268 -11.0570 -11.0216 -10.9678 -10.8489
   -10.6612 -10.2573 -10.1177  -9.8670  -9.4791  -9.3059  -9.1441  -9.0748
    -8.5555  -8.1826  -8.0671  -7.9646  -7.9096  -7.8458  -7.8128  -7.6117
    -7.5189  -7.4552  -7.4407  -7.4075  -7.3089  -7.1725  -7.1283  -7.0838
    -6.9639  -6.8928  -6.6136  -6.4700  -6.3271  -6.2852  -6.1472  -6.0361
    -6.0192  -5.9147  -5.8096  -5.7705  -5.6439  -5.6048  -5.4618  -5.4324
    -5.3783  -5.3010  -5.2591  -5.2116  -5.2024  -5.1436  -4.8994  -4.8720
    -4.7824  -4.7019  -4.5911  -4.2655  -4.0526  -3.9420  -3.8879  -3.8674
    -3.8310  -3.8228  -3.7926  -3.7567  -3.7245  -3.6025  -3.5077  -3.4289
    -3.1934  -3.0527  -2.9367  -2.7763  -2.5183  -2.2139  -2.1071  -1.1090
    -0.9317  -0.8875  -0.8704  -0.8384  -0.6637  -0.4611  -0.2620  -0.0999
    -0.0667  -0.0593  -0.0255   0.0072   0.0361   0.0755   0.1020   0.1296
     0.1841   0.2436   0.3127

     the Fermi energy is    -2.3661 ev

!    total energy              =    -673.54843324 Ry
     estimated scf accuracy    <       0.00000006 Ry
     smearing contrib. (-TS)   =      -0.00000067 Ry
     internal energy E=F+TS    =    -673.54843257 Ry

     The total energy is F=E-TS. E is the sum of the following terms:
     one-electron contribution =   -4021.25515651 Ry
     hartree contribution      =    2042.04089331 Ry
     xc contribution           =    -247.22206439 Ry
     ewald contribution        =    1553.25438146 Ry
     Dispersion Correction     =      -0.36648645 Ry

     convergence has been achieved in  16 iterations

     negative rho (up, down):  3.671E-03 0.000E+00

     Forces acting on atoms (cartesian axes, Ry/au):

     atom    1 type  1   force =    -0.00000374    0.00588407    0.00639104
     atom    2 type  1   force =     0.00022726   -0.00544416    0.00650051
     atom    3 type  1   force =    -0.00000017   -0.00533825   -0.00686202
     atom    4 type  1   force =     0.00025188    0.00471567   -0.00422479
     atom    5 type  1   force =    -0.00000308    0.00007884    0.00299443
     atom    6 type  1   force =     0.00274840   -0.00663914    0.01212749
     atom    7 type  1   force =    -0.00000533    0.00029019   -0.00241607
     atom    8 type  1   force =    -0.00122978    0.00213736   -0.00797440
     atom    9 type  1   force =    -0.00000132    0.00397370    0.00846298
     atom   10 type  1   force =     0.00055093   -0.00434969    0.00360560
     atom   11 type  1   force =    -0.00000210   -0.00426798   -0.00563079
     atom   12 type  1   force =    -0.00010970    0.00716225   -0.00582854
     atom   13 type  1   force =     0.00489903    0.00943416    0.00475540
     atom   14 type  1   force =     0.00000809   -0.00527196   -0.02395640
     atom   15 type  1   force =     0.00034760   -0.00537497   -0.00297403
     atom   16 type  1   force =     0.00000374    0.00523476   -0.00438528
     atom   17 type  1   force =     0.00964975    0.00155287   -0.00348326
     atom   18 type  1   force =     0.00000384   -0.00410801    0.00441085
     atom   19 type  1   force =    -0.01452009   -0.00264637    0.01353590
     atom   20 type  1   force =     0.00014703   -0.05857927   -0.12163428
     atom   21 type  1   force =    -0.00000134    0.00489268    0.00755729
     atom   22 type  1   force =    -0.00000399   -0.00484403    0.00174847
     atom   23 type  1   force =     0.00004924   -0.00520904   -0.00480920
     atom   24 type  1   force =    -0.00000268    0.00585073   -0.00656617
     atom   25 type  1   force =    -0.00489476    0.00943698    0.00473946
     atom   26 type  1   force =    -0.00023410   -0.00544483    0.00649371
     atom   27 type  1   force =    -0.00034513   -0.00538119   -0.00295415
     atom   28 type  1   force =    -0.00026352    0.00471927   -0.00423074
     atom   29 type  1   force =    -0.00963579    0.00158060   -0.00347645
     atom   30 type  1   force =    -0.00275040   -0.00663852    0.01211801
     atom   31 type  1   force =     0.01449477   -0.00263948    0.01348960
     atom   32 type  1   force =     0.00121426    0.00212834   -0.00797465
     atom   33 type  1   force =    -0.00000231    0.00489827    0.00755923
     atom   34 type  1   force =    -0.00055159   -0.00435372    0.00360533
     atom   35 type  1   force =    -0.00005132   -0.00521541   -0.00480813
     atom   36 type  1   force =     0.00010577    0.00716730   -0.00582770
     atom   37 type  2   force =     0.01000471    0.00155764   -0.01967668
     atom   38 type  2   force =    -0.03986926    0.00003808    0.01535617
     atom   39 type  2   force =    -0.00006524   -0.00029732    0.00072467
     atom   40 type  2   force =    -0.00209063   -0.01254625   -0.02153564
     atom   41 type  2   force =    -0.00990983    0.00157960   -0.01974811
     atom   42 type  2   force =     0.04013691    0.00002510    0.01344577
     atom   43 type  3   force =    -0.00968687    0.00008205    0.00138120
     atom   44 type  3   force =    -0.00864525   -0.00074393   -0.00608022
     atom   45 type  3   force =    -0.00005960   -0.00034305    0.01010117
     atom   46 type  3   force =     0.00959994    0.00008085    0.00140581
     atom   47 type  3   force =     0.00864621   -0.00075689   -0.00591892
     atom   48 type  4   force =     0.00241758   -0.03861767    0.34237853
     atom   49 type  4   force =    -0.00056803    0.11054974   -0.20191198

     Total force =     0.414379     Total SCF correction =     0.000067

     BFGS Geometry Optimization
     Energy error            =      0.0E+00 Ry
     Gradient error          =      3.4E-01 Ry/Bohr

     number of scf cycles    =   1
     number of bfgs steps    =   0

     energy             new  =    -673.5484332405 Ry

     new trust radius        =       0.3445580177 bohr
     new conv_thr            =       0.0000001000 Ry


ATOMIC_POSITIONS (angstrom)
P             0.0000000000        2.6758847423       10.1683491000    0   0   0
P             1.6610100000        4.1740002577       10.1683491000    0   0   0
P             0.0000000000        1.8907052577       12.3045720000    0   0   0
P             1.6610100000        0.3925897423       12.3045720000    0   0   0
P             0.0000000000        7.2424747423       10.1683491000    0   0   0
P             1.6610100000        8.7405902577       10.1683491000    0   0   0
P             0.0000000000        6.4572952577       12.3045720000    0   0   0
P             1.6610100000        4.9591797423       12.3045720000    0   0   0
P             0.0000000000       11.8090647423       10.1683491000    0   0   0
P             1.6610100000       13.3071802577       10.1683491000    0   0   0
P             0.0000000000       11.0238852577       12.3045720000    0   0   0
P             1.6610100000        9.5257697423       12.3045720000    0   0   0
P             3.3220200000        2.6758847423       10.1683491000    0   0   0
P             4.9830300000        4.1740002577       10.1683491000    0   0   0
P             3.3220200000        1.8907052577       12.3045720000    0   0   0
P             4.9830300000        0.3925897423       12.3045720000    0   0   0
P             3.3220200000        7.2424747423       10.1683491000    0   0   0
P             4.9830300000        8.7405902577       10.1683491000    0   0   0
P             3.3220200000        6.4572952577       12.3045720000    0   0   0
P             4.9830300000        4.9591797423       12.3045720000    0   0   0
P             3.3220200000       11.8090647423       10.1683491000    0   0   0
P             4.9830300000       13.3071802577       10.1683491000    0   0   0
P             3.3220200000       11.0238852577       12.3045720000    0   0   0
P             4.9830300000        9.5257697423       12.3045720000    0   0   0
P             6.6440400000        2.6758847423       10.1683491000    0   0   0
P             8.3050500000        4.1740002577       10.1683491000    0   0   0
P             6.6440400000        1.8907052577       12.3045720000    0   0   0
P             8.3050500000        0.3925897423       12.3045720000    0   0   0
P             6.6440400000        7.2424747423       10.1683491000    0   0   0
P             8.3050500000        8.7405902577       10.1683491000    0   0   0
P             6.6440400000        6.4572952577       12.3045720000    0   0   0
P             8.3050500000        4.9591797423       12.3045720000    0   0   0
P             6.6440400000       11.8090647423       10.1683491000    0   0   0
P             8.3050500000       13.3071802577       10.1683491000    0   0   0
P             6.6440400000       11.0238852577       12.3045720000    0   0   0
P             8.3050500000        9.5257697423       12.3045720000    0   0   0
C             3.7595300000        4.9592797423       18.8347720000    0   0   0
C             3.7698300000        4.9593797423       17.4399720000    0   0   0
C             4.9623300000        4.9592797423       19.5411720000    0   0   0
C             4.9830300000        4.9591797423       16.7515720000    0   0   0
C             6.1754300000        4.9592797423       18.8526720000    0   0   0
C             6.1857300000        4.9592797423       17.4579720000    0   0   0
H             2.8149300000        4.9592797423       19.3707720000    0   0   0
H             2.8333300000        4.9593797423       16.8899720000    0   0   0
H             4.9542300000        4.9591797423       20.6272720000    0   0   0
H             7.1120300000        4.9593797423       19.4026720000    0   0   0
H             7.1303300000        4.9592797423       16.9218720000    0   0   0
N             4.9843093264        4.9387441528       15.5537509162
N             4.9827294128        5.0176801456       14.1727247804



     Writing config-only to output data dir 1L_bzdz2.00/1L_bzdz2.00.save/
     NEW-OLD atomic charge density approx. for the potential

     negative rho (up, down):  3.802E-03 0.000E+00

     total cpu time spent up to now is     1134.6 secs

     Self-consistent Calculation

     iteration #  1     ecut=    40.00 Ry     beta= 0.60
     Davidson diagonalization with overlap
     c_bands:  1 eigenvalues not converged
     c_bands:  1 eigenvalues not converged
     ethr =  1.00E-06,  avg # of iterations = 20.0

     negative rho (up, down):  4.461E-03 0.000E+00

     total cpu time spent up to now is     1293.5 secs

     total energy              =    -673.24857293 Ry
     estimated scf accuracy    <       2.35355747 Ry

     iteration #  2     ecut=    40.00 Ry     beta= 0.60
     Davidson diagonalization with overlap
     ethr =  1.08E-03,  avg # of iterations =  2.0

     negative rho (up, down):  6.026E-03 0.000E+00

     total cpu time spent up to now is     1363.9 secs

     total energy              =    -673.40922261 Ry
     estimated scf accuracy    <       0.32359926 Ry

     iteration #  3     ecut=    40.00 Ry     beta= 0.60
     Davidson diagonalization with overlap
     ethr =  1.48E-04,  avg # of iterations =  2.0

     negative rho (up, down):  9.528E-03 0.000E+00

     total cpu time spent up to now is     1434.9 secs

     total energy              =    -673.41506975 Ry
     estimated scf accuracy    <       0.05233753 Ry

     iteration #  4     ecut=    40.00 Ry     beta= 0.60
     Davidson diagonalization with overlap
     ethr =  2.40E-05,  avg # of iterations =  3.0

     negative rho (up, down):  1.089E-02 0.000E+00

     total cpu time spent up to now is     1516.2 secs

     total energy              =    -673.40042696 Ry
     estimated scf accuracy    <       0.55890369 Ry

     iteration #  5     ecut=    40.00 Ry     beta= 0.60
     Davidson diagonalization with overlap
     ethr =  2.40E-05,  avg # of iterations =  2.0

     negative rho (up, down):  1.338E-02 0.000E+00

     total cpu time spent up to now is     1595.5 secs

     total energy              =    -673.42202670 Ry
     estimated scf accuracy    <       0.02126919 Ry

     iteration #  6     ecut=    40.00 Ry     beta= 0.60
     Davidson diagonalization with overlap
     ethr =  9.76E-06,  avg # of iterations =  4.5

     negative rho (up, down):  1.673E-02 0.000E+00

     total cpu time spent up to now is     1673.7 secs

     total energy              =    -673.41888703 Ry
     estimated scf accuracy    <       0.02280899 Ry

     iteration #  7     ecut=    40.00 Ry     beta= 0.60
     Davidson diagonalization with overlap
     ethr =  9.76E-06,  avg # of iterations =  4.5

     negative rho (up, down):  1.594E-02 0.000E+00

     total cpu time spent up to now is     1749.5 secs

     total energy              =    -673.41965307 Ry
     estimated scf accuracy    <       0.00227943 Ry

     iteration #  8     ecut=    40.00 Ry     beta= 0.60
     Davidson diagonalization with overlap
     c_bands:  1 eigenvalues not converged
     ethr =  1.05E-06,  avg # of iterations = 12.0

     negative rho (up, down):  1.439E-02 0.000E+00

     total cpu time spent up to now is     1847.7 secs

     total energy              =    -673.41966194 Ry
     estimated scf accuracy    <       0.01235585 Ry

     iteration #  9     ecut=    40.00 Ry     beta= 0.60
     Davidson diagonalization with overlap
     c_bands:  1 eigenvalues not converged
     ethr =  1.05E-06,  avg # of iterations = 11.0

     negative rho (up, down):  1.234E-02 0.000E+00

     total cpu time spent up to now is     1943.5 secs

     total energy              =    -673.41915094 Ry
     estimated scf accuracy    <       0.00785946 Ry

     iteration # 10     ecut=    40.00 Ry     beta= 0.60
     Davidson diagonalization with overlap
     ethr =  1.05E-06,  avg # of iterations =  6.5

     negative rho (up, down):  9.808E-03 0.000E+00

     total cpu time spent up to now is     2017.3 secs

     total energy              =    -673.41933667 Ry
     estimated scf accuracy    <       0.00012834 Ry

     iteration # 11     ecut=    40.00 Ry     beta= 0.60
     Davidson diagonalization with overlap
     ethr =  5.89E-08,  avg # of iterations =  4.0

     negative rho (up, down):  7.232E-03 0.000E+00

     total cpu time spent up to now is     2080.0 secs

     total energy              =    -673.41929347 Ry
     estimated scf accuracy    <       0.00062406 Ry

     iteration # 12     ecut=    40.00 Ry     beta= 0.60
     Davidson diagonalization with overlap
     ethr =  5.89E-08,  avg # of iterations =  3.0

     negative rho (up, down):  5.392E-03 0.000E+00

     total cpu time spent up to now is     2157.6 secs

     total energy              =    -673.41929485 Ry
     estimated scf accuracy    <       0.00002965 Ry

     iteration # 13     ecut=    40.00 Ry     beta= 0.60
     Davidson diagonalization with overlap
     ethr =  1.36E-08,  avg # of iterations =  3.0

     negative rho (up, down):  4.257E-03 0.000E+00

     total cpu time spent up to now is     2248.0 secs

     total energy              =    -673.41929504 Ry
     estimated scf accuracy    <       0.00000506 Ry

     iteration # 14     ecut=    40.00 Ry     beta= 0.60
     Davidson diagonalization with overlap
     ethr =  2.32E-09,  avg # of iterations =  4.0

     negative rho (up, down):  3.841E-03 0.000E+00

     total cpu time spent up to now is     2315.3 secs

     total energy              =    -673.41929541 Ry
     estimated scf accuracy    <       0.00001354 Ry

     iteration # 15     ecut=    40.00 Ry     beta= 0.60
     Davidson diagonalization with overlap
     ethr =  2.32E-09,  avg # of iterations =  1.5

     negative rho (up, down):  3.754E-03 0.000E+00

     total cpu time spent up to now is     2402.0 secs

     total energy              =    -673.41929609 Ry
     estimated scf accuracy    <       0.00000110 Ry

     iteration # 16     ecut=    40.00 Ry     beta= 0.60
     Davidson diagonalization with overlap
     ethr =  5.06E-10,  avg # of iterations =  5.0

     negative rho (up, down):  3.681E-03 0.000E+00

     total cpu time spent up to now is     2487.8 secs

     total energy              =    -673.41929638 Ry
     estimated scf accuracy    <       0.00000085 Ry

     iteration # 17     ecut=    40.00 Ry     beta= 0.60
     Davidson diagonalization with overlap
     ethr =  3.91E-10,  avg # of iterations =  1.5

     negative rho (up, down):  3.666E-03 0.000E+00

     total cpu time spent up to now is     2516.4 secs

     End of self-consistent calculation

          k = 0.2500 0.1819-0.2218 ( 88442 PWs)   bands (ev):

   -24.0145 -20.4755 -18.9377 -17.3655 -17.0712 -16.9829 -16.7492 -16.5703
   -16.4250 -16.0843 -15.8949 -15.7330 -15.4460 -15.3259 -15.2732 -15.2087
   -14.9669 -14.8284 -14.7016 -14.4001 -14.2970 -14.0211 -13.8294 -13.7849
   -13.2292 -12.7645 -12.5378 -12.2797 -12.2014 -12.0483 -11.8348 -11.6782
   -11.6171 -11.5168 -11.2766 -11.2448 -11.0679 -10.8539 -10.4738 -10.4596
   -10.2977 -10.2451  -9.7139  -9.5206  -9.3355  -9.0036  -8.7752  -8.6014
    -8.3264  -8.2959  -8.1683  -8.0708  -8.0324  -7.8786  -7.7928  -7.6984
    -7.6485  -7.5571  -7.4814  -7.3684  -7.2743  -7.2013  -7.1154  -6.9860
    -6.9443  -6.8266  -6.6957  -6.6027  -6.5175  -6.4311  -6.3524  -6.2381
    -6.2206  -6.1284  -6.0162  -5.9620  -5.8180  -5.6859  -5.6626  -5.6320
    -5.5222  -5.4756  -5.4308  -5.3794  -5.2037  -5.0948  -5.0475  -4.9874
    -4.8180  -4.7716  -4.7292  -4.4637  -4.2451  -4.1348  -4.0974  -4.0788
    -4.0387  -4.0337  -3.9930  -3.9679  -3.9101  -3.8087  -3.7045  -3.6435
    -3.3776  -3.2531  -3.1605  -2.9734  -2.7311  -2.6648  -2.2826  -1.2927
    -1.1422  -1.0971  -1.0827  -1.0535  -0.8420  -0.6699  -0.4432  -0.2961
    -0.2564  -0.2300  -0.1930  -0.1663  -0.1443  -0.1122  -0.0751  -0.0291
     0.0200   0.0934   0.1317

          k =-0.2500 0.1819 0.2218 ( 88442 PWs)   bands (ev):

   -24.0145 -20.4755 -18.9377 -17.3655 -17.0712 -16.9829 -16.7491 -16.5703
   -16.4250 -16.0843 -15.8949 -15.7331 -15.4460 -15.3259 -15.2731 -15.2087
   -14.9670 -14.8284 -14.7016 -14.4001 -14.2970 -14.0210 -13.8294 -13.7848
   -13.2292 -12.7645 -12.5377 -12.2798 -12.2014 -12.0483 -11.8348 -11.6781
   -11.6171 -11.5168 -11.2766 -11.2448 -11.0679 -10.8539 -10.4738 -10.4599
   -10.2972 -10.2453  -9.7139  -9.5205  -9.3355  -9.0036  -8.7752  -8.6014
    -8.3263  -8.2959  -8.1684  -8.0708  -8.0324  -7.8786  -7.7928  -7.6984
    -7.6485  -7.5570  -7.4817  -7.3684  -7.2742  -7.2013  -7.1153  -6.9858
    -6.9445  -6.8267  -6.6955  -6.6028  -6.5174  -6.4313  -6.3524  -6.2381
    -6.2207  -6.1283  -6.0162  -5.9620  -5.8181  -5.6859  -5.6626  -5.6319
    -5.5222  -5.4756  -5.4308  -5.3794  -5.2037  -5.0949  -5.0475  -4.9875
    -4.8180  -4.7716  -4.7292  -4.4637  -4.2451  -4.1348  -4.0974  -4.0788
    -4.0387  -4.0336  -3.9930  -3.9679  -3.9101  -3.8087  -3.7044  -3.6435
    -3.3776  -3.2530  -3.1605  -2.9736  -2.7307  -2.6651  -2.2826  -1.2927
    -1.1421  -1.0971  -1.0827  -1.0534  -0.8420  -0.6699  -0.4432  -0.2961
    -0.2564  -0.2299  -0.1929  -0.1662  -0.1443  -0.1121  -0.0748  -0.0288
     0.0203   0.0972   0.3919

     the Fermi energy is    -2.6979 ev

!    total energy              =    -673.41929640 Ry
     estimated scf accuracy    <       0.00000005 Ry
     smearing contrib. (-TS)   =      -0.00112939 Ry
     internal energy E=F+TS    =    -673.41816701 Ry

     The total energy is F=E-TS. E is the sum of the following terms:
     one-electron contribution =   -4015.23610877 Ry
     hartree contribution      =    2038.87744064 Ry
     xc contribution           =    -247.06735858 Ry
     ewald contribution        =    1550.37402388 Ry
     Dispersion Correction     =      -0.36616418 Ry

     convergence has been achieved in  17 iterations

     negative rho (up, down):  3.666E-03 0.000E+00

     Forces acting on atoms (cartesian axes, Ry/au):

     atom    1 type  1   force =    -0.00000846    0.00522106    0.00626475
     atom    2 type  1   force =    -0.00019765   -0.00495735    0.00562654
     atom    3 type  1   force =    -0.00000145   -0.00463296   -0.00652661
     atom    4 type  1   force =    -0.00003262    0.00504253   -0.00375695
     atom    5 type  1   force =    -0.00001022    0.00133584    0.00246890
     atom    6 type  1   force =     0.00307520   -0.00740225    0.01255129
     atom    7 type  1   force =    -0.00000334   -0.00031002   -0.00349635
     atom    8 type  1   force =    -0.00250363    0.00163750   -0.00722635
     atom    9 type  1   force =    -0.00000175    0.00446728    0.00903663
     atom   10 type  1   force =     0.00106231   -0.00468852    0.00300902
     atom   11 type  1   force =    -0.00000406   -0.00503916   -0.00575417
     atom   12 type  1   force =    -0.00024785    0.00754995   -0.00589127
     atom   13 type  1   force =     0.00291918    0.01007622    0.00228090
     atom   14 type  1   force =     0.00003079   -0.01698080   -0.01624563
     atom   15 type  1   force =     0.00142695   -0.00532587   -0.00531174
     atom   16 type  1   force =     0.00001294    0.00594431   -0.00246580
     atom   17 type  1   force =     0.00837506    0.00133699   -0.00508182
     atom   18 type  1   force =     0.00001248   -0.00380569    0.00525083
     atom   19 type  1   force =    -0.01515839   -0.00085654    0.01073954
     atom   20 type  1   force =     0.00036605   -0.03668398   -0.04314827
     atom   21 type  1   force =    -0.00016911    0.00504965    0.00712571
     atom   22 type  1   force =    -0.00000729   -0.00490282    0.00270771
     atom   23 type  1   force =     0.00035914   -0.00524856   -0.00535176
     atom   24 type  1   force =    -0.00000561    0.00552928   -0.00577952
     atom   25 type  1   force =    -0.00290287    0.01007599    0.00222550
     atom   26 type  1   force =     0.00018356   -0.00497129    0.00562495
     atom   27 type  1   force =    -0.00141088   -0.00533531   -0.00524943
     atom   28 type  1   force =     0.00000731    0.00505096   -0.00377773
     atom   29 type  1   force =    -0.00832998    0.00139734   -0.00505017
     atom   30 type  1   force =    -0.00307302   -0.00739552    0.01251674
     atom   31 type  1   force =     0.01510669   -0.00079829    0.01059902
     atom   32 type  1   force =     0.00245730    0.00162113   -0.00721996
     atom   33 type  1   force =     0.00016305    0.00506808    0.00712770
     atom   34 type  1   force =    -0.00105741   -0.00470029    0.00300764
     atom   35 type  1   force =    -0.00035376   -0.00526607   -0.00534998
     atom   36 type  1   force =     0.00024119    0.00756209   -0.00588347
     atom   37 type  2   force =     0.00515599    0.00245923   -0.02912832
     atom   38 type  2   force =    -0.06713782   -0.00047909    0.07528502
     atom   39 type  2   force =    -0.00011099   -0.00067777    0.00795271
     atom   40 type  2   force =    -0.00110724   -0.02099235    0.27594203
     atom   41 type  2   force =    -0.00469044    0.00259192   -0.02914485
     atom   42 type  2   force =     0.06579584   -0.00076973    0.07373502
     atom   43 type  3   force =    -0.01014831    0.00038885    0.00258966
     atom   44 type  3   force =    -0.00509322   -0.00109582   -0.00872361
     atom   45 type  3   force =    -0.00006078   -0.00056906    0.01014826
     atom   46 type  3   force =     0.00999992    0.00041395    0.00266408
     atom   47 type  3   force =     0.00515792   -0.00111373   -0.00864752
     atom   48 type  4   force =     0.00218757    0.01791626   -0.72137052
     atom   49 type  4   force =    -0.00026830    0.04726246    0.38910164

     Total force =     0.821179     Total SCF correction =     0.000088
     Energy error            =      1.3E-01 Ry
     Gradient error          =      7.2E-01 Ry/Bohr

     number of scf cycles    =   2
     number of bfgs steps    =   1

     energy             old  =    -673.5484332405 Ry
     energy             new  =    -673.4192964049 Ry

     CASE: energy            _new > energy            _old

     new trust radius        =       0.0983292597 bohr
     new conv_thr            =       0.0000001000 Ry


ATOMIC_POSITIONS (angstrom)
P             0.0000000000        2.6758847423       10.1683491000    0   0   0
P             1.6610100000        4.1740002577       10.1683491000    0   0   0
P             0.0000000000        1.8907052577       12.3045720000    0   0   0
P             1.6610100000        0.3925897423       12.3045720000    0   0   0
P             0.0000000000        7.2424747423       10.1683491000    0   0   0
P             1.6610100000        8.7405902577       10.1683491000    0   0   0
P             0.0000000000        6.4572952577       12.3045720000    0   0   0
P             1.6610100000        4.9591797423       12.3045720000    0   0   0
P             0.0000000000       11.8090647423       10.1683491000    0   0   0
P             1.6610100000       13.3071802577       10.1683491000    0   0   0
P             0.0000000000       11.0238852577       12.3045720000    0   0   0
P             1.6610100000        9.5257697423       12.3045720000    0   0   0
P             3.3220200000        2.6758847423       10.1683491000    0   0   0
P             4.9830300000        4.1740002577       10.1683491000    0   0   0
P             3.3220200000        1.8907052577       12.3045720000    0   0   0
P             4.9830300000        0.3925897423       12.3045720000    0   0   0
P             3.3220200000        7.2424747423       10.1683491000    0   0   0
P             4.9830300000        8.7405902577       10.1683491000    0   0   0
P             3.3220200000        6.4572952577       12.3045720000    0   0   0
P             4.9830300000        4.9591797423       12.3045720000    0   0   0
P             3.3220200000       11.8090647423       10.1683491000    0   0   0
P             4.9830300000       13.3071802577       10.1683491000    0   0   0
P             3.3220200000       11.0238852577       12.3045720000    0   0   0
P             4.9830300000        9.5257697423       12.3045720000    0   0   0
P             6.6440400000        2.6758847423       10.1683491000    0   0   0
P             8.3050500000        4.1740002577       10.1683491000    0   0   0
P             6.6440400000        1.8907052577       12.3045720000    0   0   0
P             8.3050500000        0.3925897423       12.3045720000    0   0   0
P             6.6440400000        7.2424747423       10.1683491000    0   0   0
P             8.3050500000        8.7405902577       10.1683491000    0   0   0
P             6.6440400000        6.4572952577       12.3045720000    0   0   0
P             8.3050500000        4.9591797423       12.3045720000    0   0   0
P             6.6440400000       11.8090647423       10.1683491000    0   0   0
P             8.3050500000       13.3071802577       10.1683491000    0   0   0
P             6.6440400000       11.0238852577       12.3045720000    0   0   0
P             8.3050500000        9.5257697423       12.3045720000    0   0   0
C             3.7595300000        4.9592797423       18.8347720000    0   0   0
C             3.7698300000        4.9593797423       17.4399720000    0   0   0
C             4.9623300000        4.9592797423       19.5411720000    0   0   0
C             4.9830300000        4.9591797423       16.7515720000    0   0   0
C             6.1754300000        4.9592797423       18.8526720000    0   0   0
C             6.1857300000        4.9592797423       17.4579720000    0   0   0
H             2.8149300000        4.9592797423       19.3707720000    0   0   0
H             2.8333300000        4.9593797423       16.8899720000    0   0   0
H             4.9542300000        4.9591797423       20.6272720000    0   0   0
H             7.1120300000        4.9593797423       19.4026720000    0   0   0
H             7.1303300000        4.9592797423       16.9218720000    0   0   0
N             4.9833950916        4.9533478757       15.4242764672
N             4.9829442190        4.9758744673       14.2490801598



     Writing config-only to output data dir 1L_bzdz2.00/1L_bzdz2.00.save/
     NEW-OLD atomic charge density approx. for the potential

     negative rho (up, down):  3.775E-03 0.000E+00

     total cpu time spent up to now is     2536.9 secs

     Self-consistent Calculation

     iteration #  1     ecut=    40.00 Ry     beta= 0.60
     Davidson diagonalization with overlap
     c_bands:  1 eigenvalues not converged
     ethr =  1.00E-06,  avg # of iterations = 15.5

     negative rho (up, down):  3.736E-03 0.000E+00

     total cpu time spent up to now is     2671.6 secs

     total energy              =    -673.56684871 Ry
     estimated scf accuracy    <       0.20999653 Ry

     iteration #  2     ecut=    40.00 Ry     beta= 0.60
     Davidson diagonalization with overlap
     ethr =  9.63E-05,  avg # of iterations =  2.0

     negative rho (up, down):  3.940E-03 0.000E+00

     total cpu time spent up to now is     2735.5 secs

     total energy              =    -673.56197381 Ry
     estimated scf accuracy    <       0.05971972 Ry

     iteration #  3     ecut=    40.00 Ry     beta= 0.60
     Davidson diagonalization with overlap
     ethr =  2.74E-05,  avg # of iterations =  3.5

     negative rho (up, down):  3.707E-03 0.000E+00

     total cpu time spent up to now is     2830.4 secs

     total energy              =    -673.56457097 Ry
     estimated scf accuracy    <       0.00905404 Ry

     iteration #  4     ecut=    40.00 Ry     beta= 0.60
     Davidson diagonalization with overlap
     ethr =  4.15E-06,  avg # of iterations =  4.5

     negative rho (up, down):  3.389E-03 0.000E+00

     total cpu time spent up to now is     2902.2 secs

     total energy              =    -673.56410932 Ry
     estimated scf accuracy    <       0.00797404 Ry

     iteration #  5     ecut=    40.00 Ry     beta= 0.60
     Davidson diagonalization with overlap
     ethr =  3.66E-06,  avg # of iterations =  1.5

     negative rho (up, down):  2.525E-03 0.000E+00

     total cpu time spent up to now is     2980.3 secs

     total energy              =    -673.56384227 Ry
     estimated scf accuracy    <       0.00257742 Ry

     iteration #  6     ecut=    40.00 Ry     beta= 0.60
     Davidson diagonalization with overlap
     ethr =  1.18E-06,  avg # of iterations =  2.5

     negative rho (up, down):  1.759E-03 0.000E+00

     total cpu time spent up to now is     3067.5 secs

     total energy              =    -673.56363461 Ry
     estimated scf accuracy    <       0.00145413 Ry

     iteration #  7     ecut=    40.00 Ry     beta= 0.60
     Davidson diagonalization with overlap
     ethr =  6.67E-07,  avg # of iterations =  2.0

     negative rho (up, down):  1.466E-03 0.000E+00

     total cpu time spent up to now is     3146.2 secs

     total energy              =    -673.56367601 Ry
     estimated scf accuracy    <       0.00034169 Ry

     iteration #  8     ecut=    40.00 Ry     beta= 0.60
     Davidson diagonalization with overlap
     ethr =  1.57E-07,  avg # of iterations = 10.0

     negative rho (up, down):  1.632E-03 0.000E+00

     total cpu time spent up to now is     3253.5 secs

     total energy              =    -673.56371980 Ry
     estimated scf accuracy    <       0.00031054 Ry

     iteration #  9     ecut=    40.00 Ry     beta= 0.60
     Davidson diagonalization with overlap
     ethr =  1.42E-07,  avg # of iterations =  1.0

     negative rho (up, down):  2.034E-03 0.000E+00

     total cpu time spent up to now is     3322.1 secs

     total energy              =    -673.56374191 Ry
     estimated scf accuracy    <       0.00003343 Ry

     iteration # 10     ecut=    40.00 Ry     beta= 0.60
     Davidson diagonalization with overlap
     ethr =  1.53E-08,  avg # of iterations =  8.0

     negative rho (up, down):  2.536E-03 0.000E+00

     total cpu time spent up to now is     3407.2 secs

     total energy              =    -673.56374329 Ry
     estimated scf accuracy    <       0.00001780 Ry

     iteration # 11     ecut=    40.00 Ry     beta= 0.60
     Davidson diagonalization with overlap
     ethr =  8.16E-09,  avg # of iterations =  3.0

     negative rho (up, down):  3.092E-03 0.000E+00

     total cpu time spent up to now is     3488.4 secs

     total energy              =    -673.56374464 Ry
     estimated scf accuracy    <       0.00000575 Ry

     iteration # 12     ecut=    40.00 Ry     beta= 0.60
     Davidson diagonalization with overlap
     ethr =  2.64E-09,  avg # of iterations =  3.0

     negative rho (up, down):  3.469E-03 0.000E+00

     total cpu time spent up to now is     3588.8 secs

     total energy              =    -673.56374457 Ry
     estimated scf accuracy    <       0.00000107 Ry

     iteration # 13     ecut=    40.00 Ry     beta= 0.60
     Davidson diagonalization with overlap
     ethr =  4.92E-10,  avg # of iterations =  4.0

     negative rho (up, down):  3.542E-03 0.000E+00

     total cpu time spent up to now is     3660.5 secs

     total energy              =    -673.56374463 Ry
     estimated scf accuracy    <       0.00000024 Ry

     iteration # 14     ecut=    40.00 Ry     beta= 0.60
     Davidson diagonalization with overlap
     ethr =  1.10E-10,  avg # of iterations =  5.0

     negative rho (up, down):  3.661E-03 0.000E+00

     total cpu time spent up to now is     3701.2 secs

     End of self-consistent calculation

          k = 0.2500 0.1819-0.2218 ( 88442 PWs)   bands (ev):

   -26.6407 -21.2325 -19.0881 -17.2928 -17.2578 -16.9547 -16.6594 -16.4471
   -16.2946 -16.0359 -15.7823 -15.7522 -15.4173 -15.2374 -15.1397 -15.0745
   -14.8515 -14.6982 -14.5842 -14.2828 -14.1689 -13.9996 -13.9023 -13.7064
   -13.2459 -12.6912 -12.5828 -12.3891 -12.0749 -11.9574 -11.7142 -11.5563
   -11.4762 -11.4140 -11.1717 -11.1280 -11.0142 -10.9739 -10.8976 -10.7841
   -10.6685 -10.3423 -10.1785  -9.4362  -9.3380  -9.2939  -9.2159  -8.8722
    -8.6344  -8.1895  -8.0662  -8.0162  -7.9370  -7.9059  -7.8132  -7.6957
    -7.6010  -7.5259  -7.4899  -7.3882  -7.2554  -7.2272  -7.1717  -7.0532
    -6.9786  -6.9519  -6.6983  -6.5557  -6.4088  -6.3697  -6.2318  -6.1215
    -6.1064  -6.0007  -5.8952  -5.8346  -5.7032  -5.5924  -5.5418  -5.5163
    -5.4131  -5.3613  -5.3419  -5.2912  -5.2240  -5.0093  -4.9835  -4.9591
    -4.8663  -4.7710  -4.6801  -4.3473  -4.1332  -4.0238  -3.9719  -3.9523
    -3.9143  -3.9082  -3.8753  -3.8422  -3.8043  -3.6855  -3.5896  -3.5133
    -3.2692  -3.1364  -3.0263  -2.8592  -2.6095  -2.4423  -2.1829  -1.1818
    -1.0166  -0.9723  -0.9575  -0.9266  -0.7353  -0.5464  -0.3326  -0.1788
    -0.1395  -0.1103  -0.0734  -0.0449  -0.0123   0.0153   0.0492   0.0976
     0.1253   0.1571   0.2274

          k =-0.2500 0.1819 0.2218 ( 88442 PWs)   bands (ev):

   -26.6407 -21.2325 -19.0881 -17.2928 -17.2578 -16.9547 -16.6594 -16.4471
   -16.2946 -16.0359 -15.7823 -15.7522 -15.4173 -15.2374 -15.1397 -15.0745
   -14.8516 -14.6981 -14.5842 -14.2829 -14.1689 -13.9996 -13.9024 -13.7064
   -13.2459 -12.6913 -12.5826 -12.3892 -12.0749 -11.9574 -11.7142 -11.5562
   -11.4762 -11.4140 -11.1716 -11.1280 -11.0151 -10.9732 -10.8974 -10.7846
   -10.6682 -10.3423 -10.1784  -9.4366  -9.3379  -9.2938  -9.2159  -8.8722
    -8.6345  -8.1894  -8.0662  -8.0162  -7.9370  -7.9059  -7.8131  -7.6957
    -7.6010  -7.5259  -7.4899  -7.3883  -7.2551  -7.2275  -7.1716  -7.0532
    -6.9784  -6.9522  -6.6982  -6.5557  -6.4087  -6.3698  -6.2318  -6.1215
    -6.1064  -6.0007  -5.8952  -5.8346  -5.7033  -5.5924  -5.5418  -5.5163
    -5.4131  -5.3613  -5.3419  -5.2912  -5.2240  -5.0093  -4.9836  -4.9591
    -4.8663  -4.7710  -4.6801  -4.3473  -4.1332  -4.0238  -3.9719  -3.9522
    -3.9144  -3.9082  -3.8753  -3.8422  -3.8044  -3.6855  -3.5896  -3.5133
    -3.2692  -3.1364  -3.0263  -2.8593  -2.6093  -2.4424  -2.1829  -1.1818
    -1.0166  -0.9723  -0.9575  -0.9265  -0.7354  -0.5463  -0.3326  -0.1788
    -0.1395  -0.1104  -0.0734  -0.0448  -0.0123   0.0154   0.0493   0.0977
     0.1252   0.1571   0.2275

     the Fermi energy is    -2.5259 ev

!    total energy              =    -673.56374448 Ry
     estimated scf accuracy    <       0.00000006 Ry
     smearing contrib. (-TS)   =      -0.00006146 Ry
     internal energy E=F+TS    =    -673.56368302 Ry

     The total energy is F=E-TS. E is the sum of the following terms:
     one-electron contribution =   -4018.87196375 Ry
     hartree contribution      =    2040.73897854 Ry
     xc contribution           =    -247.13605435 Ry
     ewald contribution        =    1552.07175209 Ry
     Dispersion Correction     =      -0.36639556 Ry

     convergence has been achieved in  14 iterations

     negative rho (up, down):  3.661E-03 0.000E+00

     Forces acting on atoms (cartesian axes, Ry/au):

     atom    1 type  1   force =    -0.00000558    0.00567084    0.00633279
     atom    2 type  1   force =     0.00011759   -0.00526585    0.00623475
     atom    3 type  1   force =     0.00000054   -0.00509840   -0.00669085
     atom    4 type  1   force =     0.00012146    0.00473752   -0.00417688
     atom    5 type  1   force =    -0.00000342    0.00003919    0.00266172
     atom    6 type  1   force =     0.00320404   -0.00708446    0.01275232
     atom    7 type  1   force =    -0.00000619    0.00047431   -0.00259228
     atom    8 type  1   force =    -0.00185459    0.00182160   -0.00795907
     atom    9 type  1   force =    -0.00000288    0.00405615    0.00888477
     atom   10 type  1   force =     0.00071692   -0.00441486    0.00331907
     atom   11 type  1   force =    -0.00000355   -0.00442552   -0.00575254
     atom   12 type  1   force =    -0.00017346    0.00739335   -0.00580446
     atom   13 type  1   force =     0.00395829    0.00937986    0.00370312
     atom   14 type  1   force =     0.00001748   -0.00886141   -0.02099936
     atom   15 type  1   force =     0.00064164   -0.00516233   -0.00376962
     atom   16 type  1   force =     0.00000814    0.00519880   -0.00383903
     atom   17 type  1   force =     0.00985798    0.00105760   -0.00456456
     atom   18 type  1   force =     0.00001116   -0.00374396    0.00457399
     atom   19 type  1   force =    -0.01541339   -0.00226406    0.01425147
     atom   20 type  1   force =     0.00024229   -0.05433911   -0.09320349
     atom   21 type  1   force =    -0.00009520    0.00482396    0.00760380
     atom   22 type  1   force =    -0.00000512   -0.00467962    0.00198735
     atom   23 type  1   force =     0.00013893   -0.00513184   -0.00502193
     atom   24 type  1   force =    -0.00000390    0.00565142   -0.00629470
     atom   25 type  1   force =    -0.00394894    0.00938414    0.00367330
     atom   26 type  1   force =    -0.00012854   -0.00527152    0.00622647
     atom   27 type  1   force =    -0.00063278   -0.00517377   -0.00373306
     atom   28 type  1   force =    -0.00013960    0.00474535   -0.00418858
     atom   29 type  1   force =    -0.00983615    0.00111043   -0.00455716
     atom   30 type  1   force =    -0.00320781   -0.00708849    0.01273750
     atom   31 type  1   force =     0.01537399   -0.00225644    0.01418453
     atom   32 type  1   force =     0.00182816    0.00180866   -0.00795636
     atom   33 type  1   force =     0.00009129    0.00483791    0.00760732
     atom   34 type  1   force =    -0.00071537   -0.00442449    0.00331750
     atom   35 type  1   force =    -0.00013773   -0.00514644   -0.00501884
     atom   36 type  1   force =     0.00016974    0.00740834   -0.00580126
     atom   37 type  2   force =     0.00908541    0.00198830   -0.02197783
     atom   38 type  2   force =    -0.04576507   -0.00044239    0.03055675
     atom   39 type  2   force =    -0.00007094   -0.00041473    0.00274856
     atom   40 type  2   force =    -0.00165169   -0.01640415    0.01801246
     atom   41 type  2   force =    -0.00888329    0.00203550   -0.02202937
     atom   42 type  2   force =     0.04556300   -0.00051326    0.02873287
     atom   43 type  3   force =    -0.00976757    0.00020140    0.00169912
     atom   44 type  3   force =    -0.00761738   -0.00091531   -0.00671389
     atom   45 type  3   force =    -0.00006007   -0.00047006    0.01007684
     atom   46 type  3   force =     0.00966167    0.00020599    0.00174087
     atom   47 type  3   force =     0.00762901   -0.00093204   -0.00658287
     atom   48 type  4   force =     0.00230907   -0.02649924   -0.09156776
     atom   49 type  4   force =    -0.00061760    0.10239310    0.13717650

     Total force =     0.195945     Total SCF correction =     0.000156
     Energy error            =      1.5E-02 Ry
     Gradient error          =      1.4E-01 Ry/Bohr

     number of scf cycles    =   3
     number of bfgs steps    =   1

     energy             old  =    -673.5484332405 Ry
     energy             new  =    -673.5637444849 Ry

     CASE: energy            _new < energy            _old

     new trust radius        =       0.1224042500 bohr
     new conv_thr            =       0.0000001000 Ry


ATOMIC_POSITIONS (angstrom)
P             0.0000000000        2.6758847423       10.1683491000    0   0   0
P             1.6610100000        4.1740002577       10.1683491000    0   0   0
P             0.0000000000        1.8907052577       12.3045720000    0   0   0
P             1.6610100000        0.3925897423       12.3045720000    0   0   0
P             0.0000000000        7.2424747423       10.1683491000    0   0   0
P             1.6610100000        8.7405902577       10.1683491000    0   0   0
P             0.0000000000        6.4572952577       12.3045720000    0   0   0
P             1.6610100000        4.9591797423       12.3045720000    0   0   0
P             0.0000000000       11.8090647423       10.1683491000    0   0   0
P             1.6610100000       13.3071802577       10.1683491000    0   0   0
P             0.0000000000       11.0238852577       12.3045720000    0   0   0
P             1.6610100000        9.5257697423       12.3045720000    0   0   0
P             3.3220200000        2.6758847423       10.1683491000    0   0   0
P             4.9830300000        4.1740002577       10.1683491000    0   0   0
P             3.3220200000        1.8907052577       12.3045720000    0   0   0
P             4.9830300000        0.3925897423       12.3045720000    0   0   0
P             3.3220200000        7.2424747423       10.1683491000    0   0   0
P             4.9830300000        8.7405902577       10.1683491000    0   0   0
P             3.3220200000        6.4572952577       12.3045720000    0   0   0
P             4.9830300000        4.9591797423       12.3045720000    0   0   0
P             3.3220200000       11.8090647423       10.1683491000    0   0   0
P             4.9830300000       13.3071802577       10.1683491000    0   0   0
P             3.3220200000       11.0238852577       12.3045720000    0   0   0
P             4.9830300000        9.5257697423       12.3045720000    0   0   0
P             6.6440400000        2.6758847423       10.1683491000    0   0   0
P             8.3050500000        4.1740002577       10.1683491000    0   0   0
P             6.6440400000        1.8907052577       12.3045720000    0   0   0
P             8.3050500000        0.3925897423       12.3045720000    0   0   0
P             6.6440400000        7.2424747423       10.1683491000    0   0   0
P             8.3050500000        8.7405902577       10.1683491000    0   0   0
P             6.6440400000        6.4572952577       12.3045720000    0   0   0
P             8.3050500000        4.9591797423       12.3045720000    0   0   0
P             6.6440400000       11.8090647423       10.1683491000    0   0   0
P             8.3050500000       13.3071802577       10.1683491000    0   0   0
P             6.6440400000       11.0238852577       12.3045720000    0   0   0
P             8.3050500000        9.5257697423       12.3045720000    0   0   0
C             3.7595300000        4.9592797423       18.8347720000    0   0   0
C             3.7698300000        4.9593797423       17.4399720000    0   0   0
C             4.9623300000        4.9592797423       19.5411720000    0   0   0
C             4.9830300000        4.9591797423       16.7515720000    0   0   0
C             6.1754300000        4.9592797423       18.8526720000    0   0   0
C             6.1857300000        4.9592797423       17.4579720000    0   0   0
H             2.8149300000        4.9592797423       19.3707720000    0   0   0
H             2.8333300000        4.9593797423       16.8899720000    0   0   0
H             4.9542300000        4.9591797423       20.6272720000    0   0   0
H             7.1120300000        4.9593797423       19.4026720000    0   0   0
H             7.1303300000        4.9592797423       16.9218720000    0   0   0
N             4.9846695350        4.9373108668       15.4306217532
N             4.9826135508        5.0328223158       14.2799418616



     Writing config-only to output data dir 1L_bzdz2.00/1L_bzdz2.00.save/
     NEW-OLD atomic charge density approx. for the potential

     negative rho (up, down):  3.684E-03 0.000E+00

     total cpu time spent up to now is     3720.6 secs

     Self-consistent Calculation

     iteration #  1     ecut=    40.00 Ry     beta= 0.60
     Davidson diagonalization with overlap
     ethr =  1.00E-06,  avg # of iterations =  7.0

     negative rho (up, down):  3.586E-03 0.000E+00

     total cpu time spent up to now is     3820.5 secs

     total energy              =    -673.58124438 Ry
     estimated scf accuracy    <       0.00228062 Ry

     iteration #  2     ecut=    40.00 Ry     beta= 0.60
     Davidson diagonalization with overlap
     ethr =  1.05E-06,  avg # of iterations =  2.0

     negative rho (up, down):  3.502E-03 0.000E+00

     total cpu time spent up to now is     3898.4 secs

     total energy              =    -673.58121214 Ry
     estimated scf accuracy    <       0.00058795 Ry

     iteration #  3     ecut=    40.00 Ry     beta= 0.60
     Davidson diagonalization with overlap
     ethr =  2.70E-07,  avg # of iterations =  2.0

     negative rho (up, down):  3.414E-03 0.000E+00

     total cpu time spent up to now is     3964.1 secs

     total energy              =    -673.58121274 Ry
     estimated scf accuracy    <       0.00017317 Ry

     iteration #  4     ecut=    40.00 Ry     beta= 0.60
     Davidson diagonalization with overlap
     ethr =  7.94E-08,  avg # of iterations =  2.0

     negative rho (up, down):  3.244E-03 0.000E+00

     total cpu time spent up to now is     4034.5 secs

     total energy              =    -673.58120119 Ry
     estimated scf accuracy    <       0.00007372 Ry

     iteration #  5     ecut=    40.00 Ry     beta= 0.60
     Davidson diagonalization with overlap
     ethr =  3.38E-08,  avg # of iterations =  2.0

     negative rho (up, down):  3.202E-03 0.000E+00

     total cpu time spent up to now is     4101.7 secs

     total energy              =    -673.58120312 Ry
     estimated scf accuracy    <       0.00001739 Ry

     iteration #  6     ecut=    40.00 Ry     beta= 0.60
     Davidson diagonalization with overlap
     ethr =  7.97E-09,  avg # of iterations =  4.0

     negative rho (up, down):  3.252E-03 0.000E+00

     total cpu time spent up to now is     4179.3 secs

     total energy              =    -673.58120248 Ry
     estimated scf accuracy    <       0.00000749 Ry

     iteration #  7     ecut=    40.00 Ry     beta= 0.60
     Davidson diagonalization with overlap
     ethr =  3.43E-09,  avg # of iterations =  2.0

     negative rho (up, down):  3.331E-03 0.000E+00

     total cpu time spent up to now is     4265.9 secs

     total energy              =    -673.58120245 Ry
     estimated scf accuracy    <       0.00000248 Ry

     iteration #  8     ecut=    40.00 Ry     beta= 0.60
     Davidson diagonalization with overlap
     ethr =  1.14E-09,  avg # of iterations =  5.0

     negative rho (up, down):  3.430E-03 0.000E+00

     total cpu time spent up to now is     4354.0 secs

     total energy              =    -673.58120244 Ry
     estimated scf accuracy    <       0.00000085 Ry

     iteration #  9     ecut=    40.00 Ry     beta= 0.60
     Davidson diagonalization with overlap
     ethr =  3.90E-10,  avg # of iterations =  2.0

     negative rho (up, down):  3.514E-03 0.000E+00

     total cpu time spent up to now is     4429.9 secs

     total energy              =    -673.58120231 Ry
     estimated scf accuracy    <       0.00000027 Ry

     iteration # 10     ecut=    40.00 Ry     beta= 0.60
     Davidson diagonalization with overlap
     ethr =  1.22E-10,  avg # of iterations =  4.0

     negative rho (up, down):  3.664E-03 0.000E+00

     total cpu time spent up to now is     4463.6 secs

     End of self-consistent calculation

          k = 0.2500 0.1819-0.2218 ( 88442 PWs)   bands (ev):

   -27.0871 -21.3651 -19.1524 -17.3019 -17.2645 -16.9305 -16.6301 -16.4252
   -16.2740 -16.0278 -15.7919 -15.7385 -15.3991 -15.2180 -15.1216 -15.0555
   -14.8315 -14.6785 -14.5635 -14.2588 -14.1507 -14.0666 -13.8790 -13.6821
   -13.1989 -12.6949 -12.5854 -12.3678 -12.0563 -11.9380 -11.6965 -11.5416
   -11.4640 -11.4033 -11.2425 -11.2021 -11.1100 -11.0623 -10.9376 -10.8013
   -10.6815 -10.3226 -10.1707  -9.4952  -9.3604  -9.3232  -9.2040  -8.9127
    -8.6201  -8.1688  -8.0567  -8.0056  -7.9202  -7.8904  -7.8436  -7.6793
    -7.5846  -7.5087  -7.4748  -7.3722  -7.2862  -7.2116  -7.1541  -7.0373
    -6.9947  -6.9530  -6.6809  -6.5393  -6.3909  -6.3512  -6.2163  -6.1034
    -6.0888  -5.9852  -5.8768  -5.8262  -5.6853  -5.6004  -5.5245  -5.4974
    -5.4087  -5.3556  -5.3262  -5.2745  -5.2119  -5.0477  -4.9683  -4.9414
    -4.8479  -4.7614  -4.6622  -4.3298  -4.1170  -4.0037  -3.9537  -3.9353
    -3.8966  -3.8903  -3.8581  -3.8248  -3.7891  -3.6684  -3.5727  -3.4966
    -3.2727  -3.1290  -3.0075  -2.8718  -2.6473  -2.3470  -2.1084  -1.1653
    -1.0003  -0.9567  -0.9414  -0.9114  -0.7181  -0.5305  -0.3161  -0.1599
    -0.1220  -0.0953  -0.0576  -0.0278   0.0050   0.0336   0.0645   0.0856
     0.1178   0.1743   0.2437

          k =-0.2500 0.1819 0.2218 ( 88442 PWs)   bands (ev):

   -27.0871 -21.3651 -19.1524 -17.3019 -17.2645 -16.9305 -16.6301 -16.4252
   -16.2740 -16.0278 -15.7919 -15.7385 -15.3991 -15.2180 -15.1215 -15.0555
   -14.8315 -14.6785 -14.5635 -14.2588 -14.1507 -14.0666 -13.8789 -13.6821
   -13.1989 -12.6950 -12.5853 -12.3678 -12.0563 -11.9380 -11.6966 -11.5415
   -11.4640 -11.4032 -11.2420 -11.2027 -11.1101 -11.0622 -10.9374 -10.8015
   -10.6814 -10.3227 -10.1707  -9.4951  -9.3607  -9.3230  -9.2039  -8.9127
    -8.6201  -8.1688  -8.0567  -8.0056  -7.9202  -7.8904  -7.8436  -7.6793
    -7.5846  -7.5088  -7.4748  -7.3722  -7.2860  -7.2117  -7.1541  -7.0373
    -6.9947  -6.9531  -6.6808  -6.5393  -6.3908  -6.3512  -6.2163  -6.1034
    -6.0888  -5.9852  -5.8768  -5.8262  -5.6854  -5.6004  -5.5245  -5.4974
    -5.4087  -5.3556  -5.3262  -5.2745  -5.2119  -5.0477  -4.9684  -4.9414
    -4.8479  -4.7614  -4.6621  -4.3298  -4.1169  -4.0037  -3.9537  -3.9353
    -3.8967  -3.8903  -3.8582  -3.8248  -3.7891  -3.6685  -3.5726  -3.4966
    -3.2726  -3.1289  -3.0075  -2.8722  -2.6470  -2.3471  -2.1084  -1.1653
    -1.0003  -0.9567  -0.9414  -0.9113  -0.7182  -0.5305  -0.3160  -0.1599
    -0.1219  -0.0953  -0.0576  -0.0278   0.0050   0.0336   0.0647   0.0855
     0.1178   0.1743   0.2438

     the Fermi energy is    -2.4971 ev

!    total energy              =    -673.58120204 Ry
     estimated scf accuracy    <       0.00000009 Ry
     smearing contrib. (-TS)   =      -0.00000078 Ry
     internal energy E=F+TS    =    -673.58120126 Ry

     The total energy is F=E-TS. E is the sum of the following terms:
     one-electron contribution =   -4018.34391608 Ry
     hartree contribution      =    2040.49335960 Ry
     xc contribution           =    -247.17171960 Ry
     ewald contribution        =    1551.80732781 Ry
     Dispersion Correction     =      -0.36625298 Ry

     convergence has been achieved in  10 iterations

     negative rho (up, down):  3.664E-03 0.000E+00

     Forces acting on atoms (cartesian axes, Ry/au):

     atom    1 type  1   force =    -0.00000593    0.00551966    0.00628081
     atom    2 type  1   force =     0.00017435   -0.00517415    0.00610669
     atom    3 type  1   force =    -0.00000006   -0.00502036   -0.00654793
     atom    4 type  1   force =    -0.00018111    0.00450214   -0.00425071
     atom    5 type  1   force =    -0.00000703    0.00012171    0.00302142
     atom    6 type  1   force =     0.00282077   -0.00687639    0.01232237
     atom    7 type  1   force =    -0.00000820    0.00031486   -0.00268322
     atom    8 type  1   force =    -0.00172009    0.00166053   -0.00765427
     atom    9 type  1   force =    -0.00000218    0.00414405    0.00850320
     atom   10 type  1   force =     0.00070468   -0.00422410    0.00372967
     atom   11 type  1   force =    -0.00000292   -0.00436751   -0.00564020
     atom   12 type  1   force =    -0.00009314    0.00699673   -0.00601819
     atom   13 type  1   force =     0.00294706    0.00849397    0.00419243
     atom   14 type  1   force =     0.00002499   -0.00765100   -0.01591159
     atom   15 type  1   force =     0.00079408   -0.00477974   -0.00456470
     atom   16 type  1   force =     0.00000864    0.00474255   -0.00419382
     atom   17 type  1   force =     0.00955808    0.00120546   -0.00329529
     atom   18 type  1   force =     0.00000616   -0.00338126    0.00458528
     atom   19 type  1   force =    -0.01499891   -0.00218389    0.01294465
     atom   20 type  1   force =     0.00028260   -0.05347652   -0.09706219
     atom   21 type  1   force =    -0.00013547    0.00459123    0.00748449
     atom   22 type  1   force =    -0.00000634   -0.00437947    0.00275500
     atom   23 type  1   force =     0.00007949   -0.00487905   -0.00515326
     atom   24 type  1   force =    -0.00000337    0.00536693   -0.00654072
     atom   25 type  1   force =    -0.00293581    0.00849677    0.00415439
     atom   26 type  1   force =    -0.00018813   -0.00518075    0.00609653
     atom   27 type  1   force =    -0.00078558   -0.00478989   -0.00452517
     atom   28 type  1   force =     0.00016318    0.00450802   -0.00426301
     atom   29 type  1   force =    -0.00952712    0.00125375   -0.00327563
     atom   30 type  1   force =    -0.00281922   -0.00687882    0.01230508
     atom   31 type  1   force =     0.01496586   -0.00214368    0.01284944
     atom   32 type  1   force =     0.00169077    0.00164708   -0.00764767
     atom   33 type  1   force =     0.00013166    0.00460182    0.00748780
     atom   34 type  1   force =    -0.00070309   -0.00423051    0.00372825
     atom   35 type  1   force =    -0.00007993   -0.00488875   -0.00515247
     atom   36 type  1   force =     0.00008850    0.00700584   -0.00601488
     atom   37 type  2   force =     0.00948140    0.00212100   -0.02130526
     atom   38 type  2   force =    -0.04462147   -0.00087528    0.02941442
     atom   39 type  2   force =    -0.00006531   -0.00053153    0.00217340
     atom   40 type  2   force =    -0.00134242   -0.01404830    0.03543969
     atom   41 type  2   force =    -0.00921723    0.00219300   -0.02135166
     atom   42 type  2   force =     0.04436729   -0.00101395    0.02791870
     atom   43 type  3   force =    -0.00973633    0.00036679    0.00166504
     atom   44 type  3   force =    -0.00772903   -0.00103245   -0.00674315
     atom   45 type  3   force =    -0.00006120   -0.00058669    0.01006872
     atom   46 type  3   force =     0.00962515    0.00037419    0.00171856
     atom   47 type  3   force =     0.00773628   -0.00104585   -0.00659873
     atom   48 type  4   force =     0.00202018   -0.03099092   -0.04827390
     atom   49 type  4   force =    -0.00069456    0.10440273    0.07772161

     Total force =     0.142253     Total SCF correction =     0.000177
     Energy error            =      1.7E-02 Ry
     Gradient error          =      1.0E-01 Ry/Bohr

     number of scf cycles    =   4
     number of bfgs steps    =   2

     energy             old  =    -673.5637444849 Ry
     energy             new  =    -673.5812020428 Ry

     CASE: energy            _new < energy            _old


     WARNING: bfgs curvature condition failed, Theta= 0.929
     new trust radius        =       0.1346446750 bohr
     new conv_thr            =       0.0000001000 Ry


ATOMIC_POSITIONS (angstrom)
P             0.0000000000        2.6758847423       10.1683491000    0   0   0
P             1.6610100000        4.1740002577       10.1683491000    0   0   0
P             0.0000000000        1.8907052577       12.3045720000    0   0   0
P             1.6610100000        0.3925897423       12.3045720000    0   0   0
P             0.0000000000        7.2424747423       10.1683491000    0   0   0
P             1.6610100000        8.7405902577       10.1683491000    0   0   0
P             0.0000000000        6.4572952577       12.3045720000    0   0   0
P             1.6610100000        4.9591797423       12.3045720000    0   0   0
P             0.0000000000       11.8090647423       10.1683491000    0   0   0
P             1.6610100000       13.3071802577       10.1683491000    0   0   0
P             0.0000000000       11.0238852577       12.3045720000    0   0   0
P             1.6610100000        9.5257697423       12.3045720000    0   0   0
P             3.3220200000        2.6758847423       10.1683491000    0   0   0
P             4.9830300000        4.1740002577       10.1683491000    0   0   0
P             3.3220200000        1.8907052577       12.3045720000    0   0   0
P             4.9830300000        0.3925897423       12.3045720000    0   0   0
P             3.3220200000        7.2424747423       10.1683491000    0   0   0
P             4.9830300000        8.7405902577       10.1683491000    0   0   0
P             3.3220200000        6.4572952577       12.3045720000    0   0   0
P             4.9830300000        4.9591797423       12.3045720000    0   0   0
P             3.3220200000       11.8090647423       10.1683491000    0   0   0
P             4.9830300000       13.3071802577       10.1683491000    0   0   0
P             3.3220200000       11.0238852577       12.3045720000    0   0   0
P             4.9830300000        9.5257697423       12.3045720000    0   0   0
P             6.6440400000        2.6758847423       10.1683491000    0   0   0
P             8.3050500000        4.1740002577       10.1683491000    0   0   0
P             6.6440400000        1.8907052577       12.3045720000    0   0   0
P             8.3050500000        0.3925897423       12.3045720000    0   0   0
P             6.6440400000        7.2424747423       10.1683491000    0   0   0
P             8.3050500000        8.7405902577       10.1683491000    0   0   0
P             6.6440400000        6.4572952577       12.3045720000    0   0   0
P             8.3050500000        4.9591797423       12.3045720000    0   0   0
P             6.6440400000       11.8090647423       10.1683491000    0   0   0
P             8.3050500000       13.3071802577       10.1683491000    0   0   0
P             6.6440400000       11.0238852577       12.3045720000    0   0   0
P             8.3050500000        9.5257697423       12.3045720000    0   0   0
C             3.7595300000        4.9592797423       18.8347720000    0   0   0
C             3.7698300000        4.9593797423       17.4399720000    0   0   0
C             4.9623300000        4.9592797423       19.5411720000    0   0   0
C             4.9830300000        4.9591797423       16.7515720000    0   0   0
C             6.1754300000        4.9592797423       18.8526720000    0   0   0
C             6.1857300000        4.9592797423       17.4579720000    0   0   0
H             2.8149300000        4.9592797423       19.3707720000    0   0   0
H             2.8333300000        4.9593797423       16.8899720000    0   0   0
H             4.9542300000        4.9591797423       20.6272720000    0   0   0
H             7.1120300000        4.9593797423       19.4026720000    0   0   0
H             7.1303300000        4.9592797423       16.9218720000    0   0   0
N             4.9860235175        4.9173534675       15.4376382738
N             4.9821959078        5.0993771688       14.3053774068



     Writing config-only to output data dir 1L_bzdz2.00/1L_bzdz2.00.save/
     NEW-OLD atomic charge density approx. for the potential

     negative rho (up, down):  3.693E-03 0.000E+00

     total cpu time spent up to now is     4483.0 secs

     Self-consistent Calculation

     iteration #  1     ecut=    40.00 Ry     beta= 0.60
     Davidson diagonalization with overlap
     ethr =  1.00E-06,  avg # of iterations =  7.0

     negative rho (up, down):  3.661E-03 0.000E+00

     total cpu time spent up to now is     4619.6 secs

     total energy              =    -673.59768210 Ry
     estimated scf accuracy    <       0.00311719 Ry

     iteration #  2     ecut=    40.00 Ry     beta= 0.60
     Davidson diagonalization with overlap
     ethr =  1.43E-06,  avg # of iterations =  2.0

     negative rho (up, down):  3.689E-03 0.000E+00

     total cpu time spent up to now is     4677.0 secs

     total energy              =    -673.59784771 Ry
     estimated scf accuracy    <       0.00034961 Ry

     iteration #  3     ecut=    40.00 Ry     beta= 0.60
     Davidson diagonalization with overlap
     ethr =  1.60E-07,  avg # of iterations =  3.0

     negative rho (up, down):  3.726E-03 0.000E+00

     total cpu time spent up to now is     4754.5 secs

     total energy              =    -673.59785716 Ry
     estimated scf accuracy    <       0.00006877 Ry

     iteration #  4     ecut=    40.00 Ry     beta= 0.60
     Davidson diagonalization with overlap
[...]
P             1.6610100000        9.5257697423       12.3045720000    0   0   0
P             3.3220200000        2.6758847423       10.1683491000    0   0   0
P             4.9830300000        4.1740002577       10.1683491000    0   0   0
P             3.3220200000        1.8907052577       12.3045720000    0   0   0
P             4.9830300000        0.3925897423       12.3045720000    0   0   0
P             3.3220200000        7.2424747423       10.1683491000    0   0   0
P             4.9830300000        8.7405902577       10.1683491000    0   0   0
P             3.3220200000        6.4572952577       12.3045720000    0   0   0
P             4.9830300000        4.9591797423       12.3045720000    0   0   0
P             3.3220200000       11.8090647423       10.1683491000    0   0   0
P             4.9830300000       13.3071802577       10.1683491000    0   0   0
P             3.3220200000       11.0238852577       12.3045720000    0   0   0
P             4.9830300000        9.5257697423       12.3045720000    0   0   0
P             6.6440400000        2.6758847423       10.1683491000    0   0   0
P             8.3050500000        4.1740002577       10.1683491000    0   0   0
P             6.6440400000        1.8907052577       12.3045720000    0   0   0
P             8.3050500000        0.3925897423       12.3045720000    0   0   0
P             6.6440400000        7.2424747423       10.1683491000    0   0   0
P             8.3050500000        8.7405902577       10.1683491000    0   0   0
P             6.6440400000        6.4572952577       12.3045720000    0   0   0
P             8.3050500000        4.9591797423       12.3045720000    0   0   0
P             6.6440400000       11.8090647423       10.1683491000    0   0   0
P             8.3050500000       13.3071802577       10.1683491000    0   0   0
P             6.6440400000       11.0238852577       12.3045720000    0   0   0
P             8.3050500000        9.5257697423       12.3045720000    0   0   0
C             3.7595300000        4.9592797423       18.8347720000    0   0   0
C             3.7698300000        4.9593797423       17.4399720000    0   0   0
C             4.9623300000        4.9592797423       19.5411720000    0   0   0
C             4.9830300000        4.9591797423       16.7515720000    0   0   0
C             6.1754300000        4.9592797423       18.8526720000    0   0   0
C             6.1857300000        4.9592797423       17.4579720000    0   0   0
H             2.8149300000        4.9592797423       19.3707720000    0   0   0
H             2.8333300000        4.9593797423       16.8899720000    0   0   0
H             4.9542300000        4.9591797423       20.6272720000    0   0   0
H             7.1120300000        4.9593797423       19.4026720000    0   0   0
H             7.1303300000        4.9592797423       16.9218720000    0   0   0
N             4.9908140966        5.3214197575       15.4533664844
N             4.9879530783        5.8952865015       14.4641900281



     Writing config-only to output data dir 1L_bzdz2.00/1L_bzdz2.00.save/
     NEW-OLD atomic charge density approx. for the potential

     negative rho (up, down):  3.671E-03 0.000E+00

     total cpu time spent up to now is    25024.4 secs

     Self-consistent Calculation

     iteration #  1     ecut=    40.00 Ry     beta= 0.60
     Davidson diagonalization with overlap
     ethr =  1.00E-06,  avg # of iterations =  2.0

     Threshold (ethr) on eigenvalues was too large:
     Diagonalizing with lowered threshold

     Davidson diagonalization with overlap
     ethr =  4.81E-10,  avg # of iterations =  4.0

     negative rho (up, down):  3.669E-03 0.000E+00

     total cpu time spent up to now is    25126.7 secs

     total energy              =    -673.66871432 Ry
     estimated scf accuracy    <       0.00000119 Ry

     iteration #  2     ecut=    40.00 Ry     beta= 0.60
     Davidson diagonalization with overlap
     ethr =  5.46E-10,  avg # of iterations =  2.0

     negative rho (up, down):  3.665E-03 0.000E+00

     total cpu time spent up to now is    25194.2 secs

     total energy              =    -673.66871428 Ry
     estimated scf accuracy    <       0.00000027 Ry

     iteration #  3     ecut=    40.00 Ry     beta= 0.60
     Davidson diagonalization with overlap
     ethr =  1.22E-10,  avg # of iterations =  2.0

     negative rho (up, down):  3.663E-03 0.000E+00

     total cpu time spent up to now is    25280.0 secs

     total energy              =    -673.66871431 Ry
     estimated scf accuracy    <       0.00000004 Ry

     iteration #  4     ecut=    40.00 Ry     beta= 0.60
     Davidson diagonalization with overlap
     ethr =  1.78E-11,  avg # of iterations =  3.0

     negative rho (up, down):  3.658E-03 0.000E+00

     total cpu time spent up to now is    25354.2 secs

     total energy              =    -673.66871431 Ry
     estimated scf accuracy    <       0.00000003 Ry

     iteration #  5     ecut=    40.00 Ry     beta= 0.60
     Davidson diagonalization with overlap
     ethr =  1.25E-11,  avg # of iterations =  2.0

     negative rho (up, down):  3.657E-03 0.000E+00

     total cpu time spent up to now is    25435.0 secs

     total energy              =    -673.66871431 Ry
     estimated scf accuracy    <       0.00000001 Ry

     iteration #  6     ecut=    40.00 Ry     beta= 0.60
     Davidson diagonalization with overlap
     ethr =  4.82E-12,  avg # of iterations =  1.5

     negative rho (up, down):  3.660E-03 0.000E+00

     total cpu time spent up to now is    25515.3 secs

     total energy              =    -673.66871430 Ry
     estimated scf accuracy    <          4.3E-09 Ry

     iteration #  7     ecut=    40.00 Ry     beta= 0.60
     Davidson diagonalization with overlap
     ethr =  1.96E-12,  avg # of iterations =  3.5

     negative rho (up, down):  3.671E-03 0.000E+00

     total cpu time spent up to now is    25548.7 secs

     End of self-consistent calculation

          k = 0.2500 0.1819-0.2218 ( 88442 PWs)   bands (ev):

   -27.1776 -21.2715 -19.1451 -17.4263 -17.1130 -16.8296 -16.4719 -16.3306
   -16.1927 -15.9767 -15.7100 -15.6757 -15.2333 -15.1036 -15.0604 -14.9878
   -14.7343 -14.5996 -14.4625 -14.1496 -14.1354 -14.0646 -13.7716 -13.5809
   -12.8737 -12.6871 -12.4450 -12.0571 -11.9729 -11.7387 -11.5810 -11.4688
   -11.4252 -11.3051 -11.1930 -11.1426 -11.0430 -11.0025 -10.9549 -10.7841
   -10.5623 -10.2499 -10.1046  -9.5290  -9.4352  -9.3086  -9.1571  -9.0311
    -8.5863  -8.1186  -7.9926  -7.9294  -7.8855  -7.8518  -7.8028  -7.6147
    -7.5135  -7.4421  -7.4214  -7.3977  -7.2967  -7.1557  -7.1000  -7.0408
    -6.9631  -6.9163  -6.6215  -6.4877  -6.3423  -6.2654  -6.1893  -6.0396
    -6.0206  -5.9305  -5.8067  -5.7839  -5.6724  -5.5699  -5.4569  -5.4326
    -5.3850  -5.2906  -5.2680  -5.2422  -5.1838  -5.1750  -4.9166  -4.8664
    -4.7892  -4.7383  -4.5985  -4.2871  -4.0725  -3.9484  -3.8920  -3.8789
    -3.8442  -3.8340  -3.8152  -3.7781  -3.7495  -3.6623  -3.5507  -3.4743
    -3.4267  -3.0842  -2.9477  -2.9362  -2.6567  -2.0611  -1.7895  -1.1126
    -0.9300  -0.9145  -0.8820  -0.8683  -0.6561  -0.4727  -0.2673  -0.0833
    -0.0415  -0.0332  -0.0234   0.0085   0.0414   0.0590   0.1011   0.1322
     0.1699   0.2300   0.2976

          k =-0.2500 0.1819 0.2218 ( 88442 PWs)   bands (ev):

   -27.1776 -21.2715 -19.1451 -17.4263 -17.1130 -16.8296 -16.4719 -16.3306
   -16.1927 -15.9767 -15.7100 -15.6757 -15.2333 -15.1037 -15.0604 -14.9878
   -14.7343 -14.5996 -14.4625 -14.1495 -14.1353 -14.0647 -13.7717 -13.5808
   -12.8738 -12.6872 -12.4447 -12.0577 -11.9729 -11.7387 -11.5805 -11.4688
   -11.4253 -11.3050 -11.1936 -11.1418 -11.0430 -11.0038 -10.9542 -10.7840
   -10.5628 -10.2499 -10.1040  -9.5290  -9.4351  -9.3090  -9.1572  -9.0311
    -8.5861  -8.1187  -7.9925  -7.9298  -7.8856  -7.8519  -7.8024  -7.6146
    -7.5135  -7.4420  -7.4215  -7.3978  -7.2969  -7.1555  -7.0999  -7.0411
    -6.9630  -6.9159  -6.6216  -6.4877  -6.3424  -6.2652  -6.1892  -6.0396
    -6.0205  -5.9305  -5.8067  -5.7842  -5.6724  -5.5696  -5.4569  -5.4325
    -5.3854  -5.2905  -5.2679  -5.2422  -5.1838  -5.1752  -4.9165  -4.8664
    -4.7890  -4.7383  -4.5986  -4.2870  -4.0727  -3.9483  -3.8920  -3.8789
    -3.8441  -3.8338  -3.8151  -3.7782  -3.7495  -3.6624  -3.5509  -3.4743
    -3.4265  -3.0842  -2.9477  -2.9362  -2.6567  -2.0614  -1.7891  -1.1128
    -0.9300  -0.9145  -0.8820  -0.8683  -0.6560  -0.4727  -0.2673  -0.0834
    -0.0414  -0.0332  -0.0233   0.0085   0.0416   0.0590   0.1011   0.1322
     0.1699   0.2300   0.2977

     the Fermi energy is    -2.3589 ev

!    total energy              =    -673.66871428 Ry
     estimated scf accuracy    <          1.1E-09 Ry
     smearing contrib. (-TS)   =      -0.00000000 Ry
     internal energy E=F+TS    =    -673.66871428 Ry

     The total energy is F=E-TS. E is the sum of the following terms:
     one-electron contribution =   -4007.21653065 Ry
     hartree contribution      =    2035.28778632 Ry
     xc contribution           =    -247.09647072 Ry
     ewald contribution        =    1545.72162714 Ry
     Dispersion Correction     =      -0.36512637 Ry

     convergence has been achieved in   7 iterations

     negative rho (up, down):  3.671E-03 0.000E+00

     Forces acting on atoms (cartesian axes, Ry/au):

     atom    1 type  1   force =    -0.00000047    0.00413145    0.00598073
     atom    2 type  1   force =    -0.00012154   -0.00369620    0.00494502
     atom    3 type  1   force =    -0.00000271   -0.00422662   -0.00600798
     atom    4 type  1   force =    -0.00063951    0.00451018   -0.00391280
     atom    5 type  1   force =    -0.00000607    0.00284579    0.00447990
     atom    6 type  1   force =     0.00013527   -0.00521504    0.00758219
     atom    7 type  1   force =    -0.00000221   -0.00233429   -0.00447833
     atom    8 type  1   force =    -0.00080089    0.00283617   -0.00474913
     atom    9 type  1   force =    -0.00000168    0.00470045    0.00642947
     atom   10 type  1   force =     0.00085287   -0.00425393    0.00507742
     atom   11 type  1   force =    -0.00000454   -0.00469730   -0.00503384
     atom   12 type  1   force =     0.00056097    0.00488968   -0.00672147
     atom   13 type  1   force =     0.00033025    0.00705068    0.00564131
     atom   14 type  1   force =     0.00000595   -0.01321756    0.00422480
     atom   15 type  1   force =     0.00209407   -0.00563128   -0.00844425
     atom   16 type  1   force =    -0.00000229    0.00538492   -0.00266711
     atom   17 type  1   force =     0.00239421    0.00352739    0.00579432
     atom   18 type  1   force =     0.00001134   -0.00255389    0.00622559
     atom   19 type  1   force =    -0.01089632   -0.00089738   -0.01264459
     atom   20 type  1   force =    -0.00003086    0.00083455   -0.02718578
     atom   21 type  1   force =    -0.00007165    0.00473697    0.00538658
     atom   22 type  1   force =    -0.00000047   -0.00453986    0.00595028
     atom   23 type  1   force =     0.00026035   -0.00443213   -0.00560677
     atom   24 type  1   force =    -0.00000131    0.00503572   -0.00545415
     atom   25 type  1   force =    -0.00033536    0.00704753    0.00563015
     atom   26 type  1   force =     0.00012309   -0.00369647    0.00495744
     atom   27 type  1   force =    -0.00209756   -0.00562586   -0.00843530
     atom   28 type  1   force =     0.00063696    0.00451131   -0.00391048
     atom   29 type  1   force =    -0.00237217    0.00351758    0.00576103
     atom   30 type  1   force =    -0.00013876   -0.00520935    0.00757474
     atom   31 type  1   force =     0.01106739   -0.00079690   -0.01293635
     atom   32 type  1   force =     0.00080385    0.00282759   -0.00477845
     atom   33 type  1   force =     0.00006742    0.00473762    0.00538190
     atom   34 type  1   force =    -0.00085742   -0.00425621    0.00507346
     atom   35 type  1   force =    -0.00026108   -0.00443521   -0.00560697
     atom   36 type  1   force =    -0.00056340    0.00488567   -0.00671131
     atom   37 type  2   force =     0.00862524   -0.00601915   -0.01768893
     atom   38 type  2   force =    -0.03719370   -0.00843727    0.02025617
     atom   39 type  2   force =    -0.00000771    0.00118708   -0.00154664
     atom   40 type  2   force =    -0.00017183    0.02167928    0.02846900
     atom   41 type  2   force =    -0.00819452   -0.00603075   -0.01762882
     atom   42 type  2   force =     0.03697948   -0.00841273    0.02023986
     atom   43 type  3   force =    -0.00961751   -0.00030666    0.00184568
     atom   44 type  3   force =    -0.00818856    0.00372358   -0.00683799
     atom   45 type  3   force =    -0.00006476    0.00102340    0.01029387
     atom   46 type  3   force =     0.00949465   -0.00030761    0.00193956
     atom   47 type  3   force =     0.00820676    0.00372511   -0.00664519
     atom   48 type  4   force =     0.00001201    0.00004617    0.00036482
     atom   49 type  4   force =    -0.00001528   -0.00016620    0.00012736

     Total force =     0.000424     Total SCF correction =     0.000023
     Energy error            =      6.3E-07 Ry
     Gradient error          =      3.6E-04 Ry/Bohr

     bfgs converged in  30 scf cycles and  27 bfgs steps
     (criteria: energy <  1.0E-06 Ry, force <  5.0E-04 Ry/Bohr)

     End of BFGS Geometry Optimization

     Final energy             =    -673.6687142840 Ry

     File 1L_bzdz2.00/1L_bzdz2.00.bfgs deleted, as requested
Begin final coordinates

ATOMIC_POSITIONS (angstrom)
P             0.0000000000        2.6758847423       10.1683491000    0   0   0
P             1.6610100000        4.1740002577       10.1683491000    0   0   0
P             0.0000000000        1.8907052577       12.3045720000    0   0   0
P             1.6610100000        0.3925897423       12.3045720000    0   0   0
P             0.0000000000        7.2424747423       10.1683491000    0   0   0
P             1.6610100000        8.7405902577       10.1683491000    0   0   0
P             0.0000000000        6.4572952577       12.3045720000    0   0   0
P             1.6610100000        4.9591797423       12.3045720000    0   0   0
P             0.0000000000       11.8090647423       10.1683491000    0   0   0
P             1.6610100000       13.3071802577       10.1683491000    0   0   0
P             0.0000000000       11.0238852577       12.3045720000    0   0   0
P             1.6610100000        9.5257697423       12.3045720000    0   0   0
P             3.3220200000        2.6758847423       10.1683491000    0   0   0
P             4.9830300000        4.1740002577       10.1683491000    0   0   0
P             3.3220200000        1.8907052577       12.3045720000    0   0   0
P             4.9830300000        0.3925897423       12.3045720000    0   0   0
P             3.3220200000        7.2424747423       10.1683491000    0   0   0
P             4.9830300000        8.7405902577       10.1683491000    0   0   0
P             3.3220200000        6.4572952577       12.3045720000    0   0   0
P             4.9830300000        4.9591797423       12.3045720000    0   0   0
P             3.3220200000       11.8090647423       10.1683491000    0   0   0
P             4.9830300000       13.3071802577       10.1683491000    0   0   0
P             3.3220200000       11.0238852577       12.3045720000    0   0   0
P             4.9830300000        9.5257697423       12.3045720000    0   0   0
P             6.6440400000        2.6758847423       10.1683491000    0   0   0
P             8.3050500000        4.1740002577       10.1683491000    0   0   0
P             6.6440400000        1.8907052577       12.3045720000    0   0   0
P             8.3050500000        0.3925897423       12.3045720000    0   0   0
P             6.6440400000        7.2424747423       10.1683491000    0   0   0
P             8.3050500000        8.7405902577       10.1683491000    0   0   0
P             6.6440400000        6.4572952577       12.3045720000    0   0   0
P             8.3050500000        4.9591797423       12.3045720000    0   0   0
P             6.6440400000       11.8090647423       10.1683491000    0   0   0
P             8.3050500000       13.3071802577       10.1683491000    0   0   0
P             6.6440400000       11.0238852577       12.3045720000    0   0   0
P             8.3050500000        9.5257697423       12.3045720000    0   0   0
C             3.7595300000        4.9592797423       18.8347720000    0   0   0
C             3.7698300000        4.9593797423       17.4399720000    0   0   0
C             4.9623300000        4.9592797423       19.5411720000    0   0   0
C             4.9830300000        4.9591797423       16.7515720000    0   0   0
C             6.1754300000        4.9592797423       18.8526720000    0   0   0
C             6.1857300000        4.9592797423       17.4579720000    0   0   0
H             2.8149300000        4.9592797423       19.3707720000    0   0   0
H             2.8333300000        4.9593797423       16.8899720000    0   0   0
H             4.9542300000        4.9591797423       20.6272720000    0   0   0
H             7.1120300000        4.9593797423       19.4026720000    0   0   0
H             7.1303300000        4.9592797423       16.9218720000    0   0   0
N             4.9908140966        5.3214197575       15.4533664844
N             4.9879530783        5.8952865015       14.4641900281
End final coordinates



     Writing all to output data dir 1L_bzdz2.00/1L_bzdz2.00.save/

     init_run     :     14.00s CPU     16.97s WALL (       1 calls)
     electrons    :  18545.88s CPU  24960.30s WALL (      30 calls)
     update_pot   :    129.21s CPU    129.23s WALL (      29 calls)
     forces       :    303.63s CPU    386.35s WALL (      30 calls)
     force_london :      1.55s CPU      1.55s WALL (      30 calls)

     Called by init_run:
     wfcinit      :      8.32s CPU     10.17s WALL (       1 calls)
     potinit      :      1.60s CPU      1.63s WALL (       1 calls)
     hinit0       :      2.43s CPU      2.61s WALL (       1 calls)

     Called by electrons:
     c_bands      :   6217.39s CPU   8516.17s WALL (     319 calls)
     sum_band     :   1429.00s CPU   1749.59s WALL (     319 calls)
     v_of_rho     :    105.17s CPU    109.28s WALL (     338 calls)
     newd         :    450.93s CPU    737.42s WALL (     338 calls)
     mix_rho      :  10367.92s CPU  13895.23s WALL (     319 calls)
     energy_londo :      1.48s CPU      1.48s WALL (      30 calls)

     Called by c_bands:
     init_us_2    :    108.75s CPU    109.24s WALL (    1338 calls)
     init_us_2:cp :    108.73s CPU    109.23s WALL (    1338 calls)
     cegterg      :   6020.39s CPU   8303.95s WALL (     638 calls)

     Called by *egterg:
     cdiaghg      :    687.28s CPU    932.35s WALL (    2805 calls)
     h_psi        :   3640.70s CPU   4456.28s WALL (    2887 calls)
     s_psi        :    466.89s CPU    563.03s WALL (    2887 calls)
     g_psi        :      7.04s CPU     12.99s WALL (    2247 calls)

     Called by h_psi:
     h_psi:calbec :    712.91s CPU   1161.93s WALL (    2887 calls)
     vloc_psi     :   2420.09s CPU   2520.24s WALL (    2887 calls)
     add_vuspsi   :    494.20s CPU    752.70s WALL (    2887 calls)

     General routines
     calbec       :   1028.27s CPU   1609.11s WALL (    3765 calls)
     fft          :    119.69s CPU    135.34s WALL (    4704 calls)
     ffts         :   4605.43s CPU   5761.43s WALL (  292245 calls)
     fftw         :   2200.50s CPU   2278.93s WALL (  469576 calls)
     interpolate  :     14.75s CPU     15.58s WALL (     338 calls)

     Parallel routines

     PWSCF        :      5h17m CPU      7h 6m WALL


   This run was terminated on:   3:24: 9  30Nov2022            

=------------------------------------------------------------------------------=
   JOB DONE.
=------------------------------------------------------------------------------=
