
     Program PWSCF v.7.1 starts on 26Apr2023 at 16:43:32 

     This program is part of the open-source Quantum ESPRESSO suite
     for quantum simulation of materials; please cite
         "P. Giannozzi et al., J. Phys.:Condens. Matter 21 395502 (2009);
         "P. Giannozzi et al., J. Phys.:Condens. Matter 29 465901 (2017);
         "P. Giannozzi et al., J. Chem. Phys. 152 154105 (2020);
          URL http://www.quantum-espresso.org", 
     in publications or presentations arising from this work. More details at
     http://www.quantum-espresso.org/quote

     Parallel version (MPI), running on     8 processors

     MPI processes distributed on     1 nodes
     15060 MiB available memory on the printing compute node when the environment starts

     Reading input from sand2.55-second-relax.in

     Current dimensions of program PWSCF are:
     Max number of different atomic species (ntypx) = 10
     Max number of k-points (npk) =  40000
     Max angular momentum in pseudopotentials (lmaxx) =  4

     File sand2.55/sand2.55.update deleted, as requested

     File sand2.55/sand2.55.bfgs deleted, as requested

     IMPORTANT: XC functional enforced from input :
     Exchange-correlation= PBE
                           (   1   4   3   4   0   0   0)
     Any further DFT definition will be discarded
     Please, verify this is what you really want


     R & G space division:  proc/nbgrp/npool/nimage =       8
     Subspace diagonalization in iterative solution of the eigenvalue problem:
     a serial algorithm will be used


     Parallelization info
     --------------------
     sticks:   dense  smooth     PW     G-vecs:    dense   smooth      PW
     Min         215     172     45                35275    25252    3490
     Max         216     173     46                35282    25273    3497
     Sum        1727    1381    363               282231   202095   27943

     Using Slab Decomposition



     bravais-lattice index     =            0
     lattice parameter (alat)  =      12.5554  a.u.
     unit-cell volume          =    5909.3654 (a.u.)^3
     number of atoms/cell      =           28
     number of atomic types    =            4
     number of electrons       =       106.00
     number of Kohn-Sham states=           64
     kinetic-energy cutoff     =      40.0000  Ry
     charge density cutoff     =     200.0000  Ry
     scf convergence threshold =      1.0E-07
     mixing beta               =       0.6000
     number of iterations used =            8  local-TF  mixing
     energy convergence thresh.=      1.0E-06
     force convergence thresh. =      5.0E-04
     Exchange-correlation= PBE
                           (   1   4   3   4   0   0   0)
     nstep                     =          120


     celldm(1)=  12.555416  celldm(2)=   0.000000  celldm(3)=   0.000000
     celldm(4)=   0.000000  celldm(5)=   0.000000  celldm(6)=   0.000000

     crystal axes: (cart. coord. in units of alat)
               a(1) = (   1.000000   0.000000   0.000000 )  
               a(2) = (   0.000000   0.687321   0.000000 )  
               a(3) = (   0.000000   0.000000   4.343979 )  

     reciprocal axes: (cart. coord. in units 2 pi/alat)
               b(1) = (  1.000000  0.000000  0.000000 )  
               b(2) = (  0.000000  1.454924  0.000000 )  
               b(3) = (  0.000000  0.000000  0.230204 )  


     PseudoPot. # 1 for P  read from file:
     /home/rrr/espresso/pseudo/p_pbe_v1.5.uspp.F.UPF
     MD5 check sum: eb82b2c351da08c5f5f8709277dc7ee5
     Pseudo is Ultrasoft + core correction, Zval =  5.0
     Generated by new atomic code, or converted to UPF format
     Using radial grid of  903 points,  6 beta functions with: 
                l(1) =   0
                l(2) =   0
                l(3) =   1
                l(4) =   1
                l(5) =   2
                l(6) =   2
     Q(r) pseudized with  8 coefficients,  rinner =    1.300   1.300   1.300
                                                       1.300   1.300

     PseudoPot. # 2 for C  read from file:
     /home/rrr/espresso/pseudo/c_pbe_v1.2.uspp.F.UPF
     MD5 check sum: d1aef80898a10debaa0f26306b886e00
     Pseudo is Ultrasoft + core correction, Zval =  4.0
     Generated by new atomic code, or converted to UPF format
     Using radial grid of  721 points,  4 beta functions with: 
                l(1) =   0
                l(2) =   0
                l(3) =   1
                l(4) =   1
     Q(r) pseudized with  8 coefficients,  rinner =    1.100   1.100   1.100


     PseudoPot. # 3 for H  read from file:
     /home/rrr/espresso/pseudo/h_pbe_v1.4.uspp.F.UPF
     MD5 check sum: 761ae9a214b05c3daf00ab9f6b793d6f
     Pseudo is Ultrasoft, Zval =  1.0
     Generated by new atomic code, or converted to UPF format
     Using radial grid of  615 points,  2 beta functions with: 
                l(1) =   0
                l(2) =   0
     Q(r) pseudized with  8 coefficients,  rinner =    0.700

     PseudoPot. # 4 for N  read from file:
     /home/rrr/espresso/pseudo/n_pbe_v1.2.uspp.F.UPF
     MD5 check sum: 95339753478d7afb44899504a8723017
     Pseudo is Ultrasoft + core correction, Zval =  5.0
     Generated by new atomic code, or converted to UPF format
     Using radial grid of  729 points,  4 beta functions with: 
                l(1) =   0
                l(2) =   0
                l(3) =   1
                l(4) =   1
     Q(r) pseudized with  8 coefficients,  rinner =    0.900   0.900   0.900


     atomic species   valence    mass     pseudopotential
        P              5.00     1.00000     P ( 1.00)
        C              4.00     1.00000     C ( 1.00)
        H              1.00     1.00000     H ( 1.00)
        N              5.00     1.00000     N ( 1.00)

     No symmetry found



   Cartesian axes

     site n.     atom                  positions (alat units)
         1           P   tau(   1) = (   0.0007958   0.3276020   1.5371480  )
         2           P   tau(   2) = (   0.2510515   0.5492748   1.5374878  )
         3           P   tau(   3) = (   0.0012664   0.2048969   1.8566385  )
         4           P   tau(   4) = (   0.2510328  -0.0176246   1.8577358  )
         5           P   tau(   5) = (   0.5008251   0.3268836   1.5365655  )
         6           P   tau(   6) = (   0.7507330   0.5496305   1.5376646  )
         7           P   tau(   7) = (   0.5000988   0.2060916   1.8565631  )
         8           P   tau(   8) = (   0.7505734  -0.0164465   1.8576917  )
         9           N   tau(   9) = (   0.8086383   0.3858645   2.3563703  )
        10           N   tau(  10) = (   0.2486493   0.4143979   2.3571797  )
        11           C   tau(  11) = (   0.6028810   0.3129998   2.3787079  )
        12           C   tau(  12) = (   0.4555385   0.4859732   2.3521495  )
        13           H   tau(  13) = (   0.5620245   0.1907422   2.2718839  )
        14           H   tau(  14) = (   0.5852791   0.2482186   2.5306918  )
        15           H   tau(  15) = (   0.4778154   0.5957399   2.4749909  )
        16           H   tau(  16) = (   0.4948041   0.5668235   2.2099654  )
        17           H   tau(  17) = (   0.8409696   0.4134156   2.2075015  )
        18           H   tau(  18) = (   0.9115113   0.2833742   2.4091342  )
        19           H   tau(  19) = (   0.2091585   0.3503326   2.2219244  )
        20           H   tau(  20) = (   0.1480744   0.5284864   2.3845511  )
        21           P   tau(  21) = (  -0.0442672   0.4155290   2.8778687  )
        22           P   tau(  22) = (   0.2064711   0.6376528   2.8780317  )
        23           P   tau(  23) = (  -0.0436720   0.2957448   3.1984435  )
        24           P   tau(  24) = (   0.2051273   0.0723127   3.1979578  )
        25           P   tau(  25) = (   0.4558831   0.4155358   2.8839108  )
        26           P   tau(  26) = (   0.7055995   0.6382019   2.8796151  )
        27           P   tau(  27) = (   0.4560959   0.2935088   3.2025753  )
        28           P   tau(  28) = (   0.7072069   0.0723889   3.1993566  )

     -------------------------------------------------
     Parameters for Dispersion (Grimme-D2) Correction:
     -------------------------------------------------
       atom      VdW radius       C_6     

        P          3.222        271.980
        C          2.744         60.710
        H          1.892          4.857
        N          2.640         42.670

     number of k points=     2  Fermi-Dirac smearing, width (Ry)=  0.0010
                       cart. coord. in units 2pi/alat
        k(    1) = (   0.2500000   0.3637309  -0.1151018), wk =   1.0000000
        k(    2) = (  -0.2500000   0.3637309   0.1151018), wk =   1.0000000

     Dense  grid:   282231 G-vectors     FFT dimensions: (  60,  40, 250)

     Smooth grid:   202095 G-vectors     FFT dimensions: (  54,  36, 225)

     Estimated max dynamical RAM per process >     178.27 MB

     Estimated total dynamical RAM >       1.39 GB

     Initial potential from superposition of free atoms

     starting charge     105.9973, renormalised to     106.0000

     negative rho (up, down):  5.639E-04 0.000E+00
     Starting wfcs are   88 randomized atomic wfcs

     total cpu time spent up to now is        4.7 secs

     Self-consistent Calculation

     iteration #  1     ecut=    40.00 Ry     beta= 0.60
     Davidson diagonalization with overlap
     ethr =  1.00E-02,  avg # of iterations =  3.0

     negative rho (up, down):  1.201E-05 0.000E+00

     total cpu time spent up to now is       33.1 secs

     total energy              =    -321.30950818 Ry
     estimated scf accuracy    <       1.68561066 Ry

     iteration #  2     ecut=    40.00 Ry     beta= 0.60
     Davidson diagonalization with overlap
     ethr =  1.59E-03,  avg # of iterations =  2.0

     negative rho (up, down):  2.511E-08 0.000E+00

     total cpu time spent up to now is       47.1 secs

     total energy              =    -321.22552712 Ry
     estimated scf accuracy    <       0.54603513 Ry

     iteration #  3     ecut=    40.00 Ry     beta= 0.60
     Davidson diagonalization with overlap
     ethr =  5.15E-04,  avg # of iterations =  2.0

     total cpu time spent up to now is       59.0 secs

     total energy              =    -321.26272383 Ry
     estimated scf accuracy    <       0.12570933 Ry

     iteration #  4     ecut=    40.00 Ry     beta= 0.60
     Davidson diagonalization with overlap
     ethr =  1.19E-04,  avg # of iterations = 12.0

     total cpu time spent up to now is       87.8 secs

     total energy              =    -321.25702119 Ry
     estimated scf accuracy    <       0.07556078 Ry

     iteration #  5     ecut=    40.00 Ry     beta= 0.60
     Davidson diagonalization with overlap
     ethr =  7.13E-05,  avg # of iterations =  2.0

     total cpu time spent up to now is       98.4 secs

     total energy              =    -321.24448879 Ry
     estimated scf accuracy    <       0.04904286 Ry

     iteration #  6     ecut=    40.00 Ry     beta= 0.60
     Davidson diagonalization with overlap
     ethr =  4.63E-05,  avg # of iterations =  4.0

     total cpu time spent up to now is      112.5 secs

     total energy              =    -321.24868373 Ry
     estimated scf accuracy    <       0.01058386 Ry

     iteration #  7     ecut=    40.00 Ry     beta= 0.60
     Davidson diagonalization with overlap
     ethr =  9.98E-06,  avg # of iterations =  7.0

     total cpu time spent up to now is      132.9 secs

     total energy              =    -321.24999137 Ry
     estimated scf accuracy    <       0.00634613 Ry

     iteration #  8     ecut=    40.00 Ry     beta= 0.60
     Davidson diagonalization with overlap
     ethr =  5.99E-06,  avg # of iterations =  2.0

     negative rho (up, down):  1.205E-05 0.000E+00

     total cpu time spent up to now is      149.3 secs

     total energy              =    -321.25007253 Ry
     estimated scf accuracy    <       0.00295133 Ry

     iteration #  9     ecut=    40.00 Ry     beta= 0.60
     Davidson diagonalization with overlap
     ethr =  2.78E-06,  avg # of iterations =  3.5

     negative rho (up, down):  8.570E-05 0.000E+00

     total cpu time spent up to now is      172.3 secs

     total energy              =    -321.25008610 Ry
     estimated scf accuracy    <       0.00216021 Ry

     iteration # 10     ecut=    40.00 Ry     beta= 0.60
     Davidson diagonalization with overlap
     ethr =  2.04E-06,  avg # of iterations =  4.0

     negative rho (up, down):  1.091E-03 0.000E+00

     total cpu time spent up to now is      197.9 secs

     total energy              =    -321.24998828 Ry
     estimated scf accuracy    <       0.00154342 Ry

     iteration # 11     ecut=    40.00 Ry     beta= 0.60
     Davidson diagonalization with overlap
     ethr =  1.46E-06,  avg # of iterations =  2.0

     negative rho (up, down):  8.018E-03 0.000E+00

     total cpu time spent up to now is      220.1 secs

     total energy              =    -321.25005544 Ry
     estimated scf accuracy    <       0.00085081 Ry

     iteration # 12     ecut=    40.00 Ry     beta= 0.60
     Davidson diagonalization with overlap
     ethr =  8.03E-07,  avg # of iterations =  2.0

     negative rho (up, down):  1.057E-02 0.000E+00

     total cpu time spent up to now is      245.7 secs

     total energy              =    -321.25007283 Ry
     estimated scf accuracy    <       0.00058787 Ry

     iteration # 13     ecut=    40.00 Ry     beta= 0.60
     Davidson diagonalization with overlap
     ethr =  5.55E-07,  avg # of iterations = 11.5

     negative rho (up, down):  9.354E-03 0.000E+00

     total cpu time spent up to now is      282.1 secs

     total energy              =    -321.25008113 Ry
     estimated scf accuracy    <       0.00032857 Ry

     iteration # 14     ecut=    40.00 Ry     beta= 0.60
     Davidson diagonalization with overlap
     ethr =  3.10E-07,  avg # of iterations =  5.5

     negative rho (up, down):  4.959E-03 0.000E+00

     total cpu time spent up to now is      308.3 secs

     total energy              =    -321.25001226 Ry
     estimated scf accuracy    <       0.00022299 Ry

     iteration # 15     ecut=    40.00 Ry     beta= 0.60
     Davidson diagonalization with overlap
     ethr =  2.10E-07,  avg # of iterations =  2.0

     negative rho (up, down):  2.322E-03 0.000E+00

     total cpu time spent up to now is      331.9 secs

     total energy              =    -321.24996390 Ry
     estimated scf accuracy    <       0.00008898 Ry

     iteration # 16     ecut=    40.00 Ry     beta= 0.60
     Davidson diagonalization with overlap
     ethr =  8.39E-08,  avg # of iterations =  5.5

     negative rho (up, down):  1.059E-03 0.000E+00

     total cpu time spent up to now is      361.6 secs

     total energy              =    -321.24996484 Ry
     estimated scf accuracy    <       0.00002455 Ry

     iteration # 17     ecut=    40.00 Ry     beta= 0.60
     Davidson diagonalization with overlap
     ethr =  2.32E-08,  avg # of iterations = 10.5

     negative rho (up, down):  1.035E-03 0.000E+00

     total cpu time spent up to now is      404.0 secs

     total energy              =    -321.24996964 Ry
     estimated scf accuracy    <       0.00000329 Ry

     iteration # 18     ecut=    40.00 Ry     beta= 0.60
     Davidson diagonalization with overlap
     ethr =  3.11E-09,  avg # of iterations =  3.0

     negative rho (up, down):  1.053E-03 0.000E+00

     total cpu time spent up to now is      432.3 secs

     total energy              =    -321.24997007 Ry
     estimated scf accuracy    <       0.00000075 Ry

     iteration # 19     ecut=    40.00 Ry     beta= 0.60
     Davidson diagonalization with overlap
     ethr =  7.04E-10,  avg # of iterations =  3.5

     negative rho (up, down):  1.019E-03 0.000E+00

     total cpu time spent up to now is      468.8 secs

     total energy              =    -321.24997029 Ry
     estimated scf accuracy    <       0.00000016 Ry

     iteration # 20     ecut=    40.00 Ry     beta= 0.60
     Davidson diagonalization with overlap
     ethr =  1.48E-10,  avg # of iterations =  4.5

     negative rho (up, down):  1.006E-03 0.000E+00

     total cpu time spent up to now is      483.3 secs

     End of self-consistent calculation

          k = 0.2500 0.3637-0.1151 ( 25244 PWs)   bands (ev):

   -17.5965 -16.9070 -15.1550 -14.2667 -13.7597 -13.4102 -12.8761 -12.6658
   -12.5098 -12.2179 -11.3304 -10.7772  -9.9590  -9.8792  -9.7915  -8.9563
    -8.9095  -8.0687  -7.8569  -7.5691  -7.2794  -6.7214  -6.6521  -6.4023
    -5.8473  -5.5832  -5.5631  -5.2154  -5.1113  -4.7120  -4.6837  -4.3708
    -4.3052  -4.0660  -3.8507  -3.7650  -3.6889  -3.5964  -3.4638  -3.3525
    -2.8774  -2.7118  -2.6080  -2.5763  -2.0174  -1.8175  -1.6740  -1.5719
    -1.1742  -1.0613  -0.8878  -0.7337  -0.6115   0.8218   1.4485   1.7259
     1.7652   1.9387   2.0223   2.3523   2.3612   2.3912   2.6589   2.8360

          k =-0.2500 0.3637 0.1151 ( 25244 PWs)   bands (ev):

   -17.5982 -16.9039 -15.1548 -14.2665 -13.7602 -13.4100 -12.8769 -12.6768
   -12.5108 -12.2183 -11.3270 -10.7785  -9.9100  -9.8858  -9.7952  -8.9554
    -8.9089  -8.0640  -7.8540  -7.5730  -7.3340  -6.7499  -6.6548  -6.4238
    -5.8498  -5.5762  -5.5394  -5.1899  -5.0647  -4.7174  -4.6954  -4.3693
    -4.2968  -4.0650  -3.8406  -3.7668  -3.6377  -3.5959  -3.4728  -3.4392
    -2.8788  -2.7098  -2.6025  -2.5664  -2.0143  -1.8125  -1.6821  -1.5725
    -1.2193  -0.9259  -0.8991  -0.7879  -0.6357   0.8409   1.4459   1.7197
     1.7538   1.9366   2.0211   2.3466   2.3646   2.3922   2.6697   2.8362

     the Fermi energy is     0.3840 ev

!    total energy              =    -321.24997034 Ry
     estimated scf accuracy    <       0.00000005 Ry
     smearing contrib. (-TS)   =      -0.00000000 Ry
     internal energy E=F+TS    =    -321.24997034 Ry

     The total energy is F=E-TS. E is the sum of the following terms:
     one-electron contribution =   -3216.36049441 Ry
     hartree contribution      =    1633.82581412 Ry
     xc contribution           =    -118.12379756 Ry
     ewald contribution        =    1379.63887580 Ry
     Dispersion Correction     =      -0.23036829 Ry

     convergence has been achieved in  20 iterations

     negative rho (up, down):  1.006E-03 0.000E+00

     Forces acting on atoms (cartesian axes, Ry/au):

     atom    1 type  1   force =     0.00016841   -0.00025891    0.00035576
     atom    2 type  1   force =    -0.00002430    0.00028360    0.00005211
     atom    3 type  1   force =     0.00012931    0.00048580   -0.00015656
     atom    4 type  1   force =     0.00000596   -0.00014420    0.00027664
     atom    5 type  1   force =     0.00030783   -0.00015859    0.00021115
     atom    6 type  1   force =     0.00007966    0.00020184    0.00007086
     atom    7 type  1   force =     0.00025034    0.00040763    0.00018685
     atom    8 type  1   force =     0.00007034   -0.00006090    0.00035778
     atom    9 type  4   force =     0.00031525    0.00013650    0.00007179
     atom   10 type  4   force =    -0.00009930   -0.00031951    0.00019197
     atom   11 type  2   force =    -0.00005836   -0.00030865   -0.00004913
     atom   12 type  2   force =    -0.00014434   -0.00015854   -0.00018038
     atom   13 type  3   force =     0.00014005   -0.00001700   -0.00088543
     atom   14 type  3   force =    -0.00019469    0.00016849    0.00039361
     atom   15 type  3   force =    -0.00014690    0.00018046   -0.00048173
     atom   16 type  3   force =     0.00017039    0.00005778   -0.00009674
     atom   17 type  3   force =     0.00022014   -0.00024182    0.00007950
     atom   18 type  3   force =     0.00013584   -0.00006111    0.00002652
     atom   19 type  3   force =    -0.00000660   -0.00025763   -0.00025804
     atom   20 type  3   force =     0.00017250    0.00004568    0.00007425
     atom   21 type  1   force =    -0.00010217   -0.00033447    0.00017033
     atom   22 type  1   force =     0.00000810    0.00004479    0.00000030
     atom   23 type  1   force =    -0.00016493    0.00008321   -0.00009077
     atom   24 type  1   force =    -0.00001109   -0.00005103   -0.00013444
     atom   25 type  1   force =    -0.00023637   -0.00018074    0.00038319
     atom   26 type  1   force =    -0.00042787    0.00001757   -0.00015900
     atom   27 type  1   force =    -0.00023983    0.00037218   -0.00030688
     atom   28 type  1   force =    -0.00031743    0.00006756   -0.00010348

     Total force =     0.002115     Total SCF correction =     0.000403
     SCF correction compared to forces is large: reduce conv_thr to get better values

     BFGS Geometry Optimization
     Energy error            =      0.0E+00 Ry
     Gradient error          =      8.9E-04 Ry/Bohr

     number of scf cycles    =   1
     number of bfgs steps    =   0

     energy             new  =    -321.2499703354 Ry

     new trust radius        =       0.0008966039 bohr
     new conv_thr            =       0.0000001000 Ry


ATOMIC_POSITIONS (angstrom)
P             0.0053764028        2.1764638211       10.2130610081
P             1.6679836522        3.6495537414       10.2151583148
P             0.0084827477        1.3616001103       12.3354973978
P             1.6678749783       -0.1171750398       12.3430175054
P             3.3276647059        2.1717436657       10.2091141069
P             4.9879425065        3.6518735378       10.2163425407
P             3.3228089710        1.3694967424       12.3351781534
P             4.9868768304       -0.1093035722       12.3427670289
N             5.3727919789        2.5637711040       15.6558566247
N             1.6519835217        2.7531072349       15.6612976991
C             4.0055343979        2.0794197845       15.8042041925
C             3.0265398127        3.2287414468       15.6276801224
H             3.7341873595        1.2672896839       15.0940189355
H             3.8885147737        1.6492636665       16.8142261488
H             3.1745470105        3.9582151551       16.4436837343
H             3.2875884927        3.7660285324       14.6830475111
H             5.5875521272        2.7466218890       14.6667702198
H             6.0561896130        1.8827170918       16.0063980961
H             1.3896541464        2.3274874867       14.7624177744
H             0.9839032945        3.5113091495       15.8430924159
P            -0.2941671539        2.7606142886       19.1207648664
P             1.3718065331        4.2366141731       19.1217579907
P            -0.2902457301        1.9649840518       21.2505385184
P             1.3628681021        0.4804215947       21.2472882263
P             3.0287801697        2.7607406748       19.1610212452
P             4.6878052109        4.2402480276       19.1321937612
P             3.0301924970        1.9502811276       21.2778759286
P             4.6985430480        0.4809908295       21.2565987326



     Writing config-only to output data dir sand2.55/sand2.55.save/
     NEW-OLD atomic charge density approx. for the potential

     negative rho (up, down):  1.006E-03 0.000E+00

     total cpu time spent up to now is      489.6 secs

     Self-consistent Calculation

     iteration #  1     ecut=    40.00 Ry     beta= 0.60
     Davidson diagonalization with overlap
     ethr =  1.00E-06,  avg # of iterations =  2.0

     Threshold (ethr) on eigenvalues was too large:
     Diagonalizing with lowered threshold

     Davidson diagonalization with overlap
     ethr =  5.18E-10,  avg # of iterations =  4.0

     negative rho (up, down):  1.006E-03 0.000E+00

     total cpu time spent up to now is      544.4 secs

     total energy              =    -321.24997423 Ry
     estimated scf accuracy    <       0.00000066 Ry

     iteration #  2     ecut=    40.00 Ry     beta= 0.60
     Davidson diagonalization with overlap
     ethr =  6.24E-10,  avg # of iterations =  1.0

     negative rho (up, down):  1.006E-03 0.000E+00

     total cpu time spent up to now is      574.9 secs

     total energy              =    -321.24997418 Ry
     estimated scf accuracy    <       0.00000024 Ry

     iteration #  3     ecut=    40.00 Ry     beta= 0.60
     Davidson diagonalization with overlap
     ethr =  2.29E-10,  avg # of iterations =  2.0

     negative rho (up, down):  1.006E-03 0.000E+00

     total cpu time spent up to now is      583.6 secs

     End of self-consistent calculation

          k = 0.2500 0.3637-0.1151 ( 25244 PWs)   bands (ev):

   -17.5960 -16.9065 -15.1547 -14.2670 -13.7595 -13.4094 -12.8764 -12.6655
   -12.5095 -12.2175 -11.3305 -10.7769  -9.9585  -9.8792  -9.7922  -8.9556
    -8.9103  -8.0683  -7.8567  -7.5693  -7.2789  -6.7213  -6.6524  -6.4023
    -5.8472  -5.5830  -5.5634  -5.2148  -5.1105  -4.7119  -4.6838  -4.3714
    -4.3052  -4.0659  -3.8506  -3.7643  -3.6889  -3.5966  -3.4642  -3.3529
    -2.8770  -2.7122  -2.6085  -2.5767  -2.0178  -1.8178  -1.6741  -1.5723
    -1.1746  -1.0618  -0.8884  -0.7341  -0.6121   0.8210   1.4482   1.7255
     1.7650   1.9378   2.0213   2.3527   2.3617   2.3912   2.6591   2.8353

          k =-0.2500 0.3637 0.1151 ( 25244 PWs)   bands (ev):

   -17.5977 -16.9035 -15.1545 -14.2668 -13.7600 -13.4092 -12.8773 -12.6765
   -12.5105 -12.2180 -11.3272 -10.7781  -9.9095  -9.8857  -9.7959  -8.9548
    -8.9098  -8.0637  -7.8538  -7.5732  -7.3335  -6.7498  -6.6550  -6.4238
    -5.8497  -5.5764  -5.5391  -5.1893  -5.0638  -4.7174  -4.6954  -4.3699
    -4.2969  -4.0649  -3.8405  -3.7660  -3.6378  -3.5963  -3.4734  -3.4394
    -2.8784  -2.7102  -2.6029  -2.5667  -2.0147  -1.8128  -1.6822  -1.5729
    -1.2196  -0.9266  -0.8997  -0.7886  -0.6361   0.8402   1.4455   1.7193
     1.7537   1.9357   2.0201   2.3467   2.3648   2.3921   2.6700   2.8355

     the Fermi energy is     0.3834 ev

!    total energy              =    -321.24997420 Ry
     estimated scf accuracy    <       0.00000002 Ry
     smearing contrib. (-TS)   =      -0.00000000 Ry
     internal energy E=F+TS    =    -321.24997420 Ry

     The total energy is F=E-TS. E is the sum of the following terms:
     one-electron contribution =   -3216.41853684 Ry
     hartree contribution      =    1633.85573186 Ry
     xc contribution           =    -118.12293901 Ry
     ewald contribution        =    1379.66614076 Ry
     Dispersion Correction     =      -0.23037097 Ry

     convergence has been achieved in   3 iterations

     negative rho (up, down):  1.006E-03 0.000E+00

     Forces acting on atoms (cartesian axes, Ry/au):

     atom    1 type  1   force =     0.00014427   -0.00013197    0.00023932
     atom    2 type  1   force =     0.00002450    0.00016778    0.00007277
     atom    3 type  1   force =     0.00011996    0.00032994   -0.00003893
     atom    4 type  1   force =     0.00002677   -0.00000553    0.00024111
     atom    5 type  1   force =     0.00024202   -0.00005575    0.00017088
     atom    6 type  1   force =     0.00010491    0.00012286    0.00010195
     atom    7 type  1   force =     0.00020041    0.00027510    0.00019314
     atom    8 type  1   force =     0.00010049    0.00004468    0.00030490
     atom    9 type  4   force =     0.00004049    0.00001717    0.00020049
     atom   10 type  4   force =    -0.00013439   -0.00034253   -0.00007845
     atom   11 type  2   force =     0.00006034   -0.00018908   -0.00006307
     atom   12 type  2   force =    -0.00001750   -0.00016946   -0.00015617
     atom   13 type  3   force =     0.00019138    0.00007417   -0.00066992
     atom   14 type  3   force =    -0.00017139    0.00015292    0.00019968
     atom   15 type  3   force =    -0.00013808    0.00014691   -0.00043247
     atom   16 type  3   force =     0.00010414   -0.00001337   -0.00007411
     atom   17 type  3   force =     0.00023701   -0.00022280   -0.00000066
     atom   18 type  3   force =     0.00015305   -0.00007248    0.00004243
     atom   19 type  3   force =     0.00002149   -0.00013360    0.00000210
     atom   20 type  3   force =     0.00016777   -0.00001457    0.00005006
     atom   21 type  1   force =    -0.00012179   -0.00020243    0.00011382
     atom   22 type  1   force =    -0.00005258   -0.00001373   -0.00001809
     atom   23 type  1   force =    -0.00015682    0.00002789   -0.00006328
     atom   24 type  1   force =    -0.00003519    0.00000476   -0.00012421
     atom   25 type  1   force =    -0.00022816   -0.00012432    0.00023830
     atom   26 type  1   force =    -0.00034729   -0.00004809   -0.00013387
     atom   27 type  1   force =    -0.00022852    0.00027618   -0.00019057
     atom   28 type  1   force =    -0.00030729    0.00009933   -0.00012714

     Total force =     0.001631     Total SCF correction =     0.000315
     SCF correction compared to forces is large: reduce conv_thr to get better values
     Energy error            =      3.9E-06 Ry
     Gradient error          =      6.7E-04 Ry/Bohr

     number of scf cycles    =   2
     number of bfgs steps    =   1

     energy             old  =    -321.2499703354 Ry
     energy             new  =    -321.2499742033 Ry

     CASE: energy            _new < energy            _old

     new trust radius        =       0.0009862643 bohr
     new conv_thr            =       0.0000000013 Ry


ATOMIC_POSITIONS (angstrom)
P             0.0054817343        2.1763516387       10.2132472707
P             1.6679935513        3.6496894874       10.2152064855
P             0.0085687101        1.3618561997       12.3354521933
P             1.6678907055       -0.1171998782       12.3431928105
P             3.3278452275        2.1716888422       10.2092406254
P             4.9880126343        3.6519720613       10.2164097021
P             3.3229577625        1.3697106512       12.3353133329
P             4.9869431042       -0.1092880243       12.3429899127
N             5.3728620100        2.5638012286       15.6559784994
N             1.6518941022        2.7528692896       15.6612832440
C             4.0055589995        2.0792684582       15.8041618465
C             3.0265083234        3.2286236558       15.6275663941
H             3.7343144945        1.2673281917       15.0935142154
H             3.8883904549        1.6493737986       16.8143961747
H             3.1744483586        3.9583237640       16.4433714807
H             3.2876718989        3.7660298538       14.6829918579
H             5.5877166322        2.7464619839       14.6667818616
H             6.0562948874        1.8826677235       16.0064255976
H             1.3896650536        2.3273745918       14.7623799668
H             0.9840222550        3.5113079804       15.8431313551
P            -0.2942500285        2.7604516716       19.1208536217
P             1.3717786395        4.2366133352       19.1217480175
P            -0.2903574858        1.9650120647       21.2504897658
P             1.3628469401        0.4804165258       21.2471991354
P             3.0286181175        2.7606445336       19.1612110862
P             4.6875482634        4.2402240479       19.1320956091
P             3.0300297214        1.9504902820       21.2777240437
P             4.6983249322        0.4810560415       21.2565126938



     Writing config-only to output data dir sand2.55/sand2.55.save/
     NEW-OLD atomic charge density approx. for the potential

     negative rho (up, down):  1.006E-03 0.000E+00

     total cpu time spent up to now is      590.3 secs

     Self-consistent Calculation

     iteration #  1     ecut=    40.00 Ry     beta= 0.60
     Davidson diagonalization with overlap
     ethr =  1.00E-06,  avg # of iterations =  2.0

     Threshold (ethr) on eigenvalues was too large:
     Diagonalizing with lowered threshold

     Davidson diagonalization with overlap
     ethr =  3.72E-10,  avg # of iterations =  5.5

     negative rho (up, down):  1.007E-03 0.000E+00

     total cpu time spent up to now is      633.8 secs

     total energy              =    -321.24997749 Ry
     estimated scf accuracy    <       0.00000073 Ry

     iteration #  2     ecut=    40.00 Ry     beta= 0.60
     Davidson diagonalization with overlap
     ethr =  6.88E-10,  avg # of iterations =  1.0

     negative rho (up, down):  1.007E-03 0.000E+00

     total cpu time spent up to now is      674.8 secs

     total energy              =    -321.24997745 Ry
     estimated scf accuracy    <       0.00000025 Ry

     iteration #  3     ecut=    40.00 Ry     beta= 0.60
     Davidson diagonalization with overlap
     ethr =  2.39E-10,  avg # of iterations =  2.0

     negative rho (up, down):  1.008E-03 0.000E+00

     total cpu time spent up to now is      706.8 secs

     total energy              =    -321.24997749 Ry
     estimated scf accuracy    <       0.00000002 Ry

     iteration #  4     ecut=    40.00 Ry     beta= 0.60
     Davidson diagonalization with overlap
     ethr =  2.28E-11,  avg # of iterations =  5.0

     negative rho (up, down):  1.008E-03 0.000E+00

     total cpu time spent up to now is      741.6 secs

     total energy              =    -321.24997750 Ry
     estimated scf accuracy    <          5.7E-09 Ry

     iteration #  5     ecut=    40.00 Ry     beta= 0.60
     Davidson diagonalization with overlap
     ethr =  5.36E-12,  avg # of iterations =  5.0

     negative rho (up, down):  1.008E-03 0.000E+00

     total cpu time spent up to now is      776.7 secs

     total energy              =    -321.24997750 Ry
     estimated scf accuracy    <          3.8E-09 Ry

     iteration #  6     ecut=    40.00 Ry     beta= 0.60
     Davidson diagonalization with overlap
     ethr =  3.55E-12,  avg # of iterations =  1.5

     negative rho (up, down):  1.007E-03 0.000E+00

     total cpu time spent up to now is      801.9 secs

     total energy              =    -321.24997750 Ry
     estimated scf accuracy    <          3.0E-09 Ry

     iteration #  7     ecut=    40.00 Ry     beta= 0.60
     Davidson diagonalization with overlap
     ethr =  2.79E-12,  avg # of iterations =  1.0

     negative rho (up, down):  1.007E-03 0.000E+00

     total cpu time spent up to now is      833.6 secs

     total energy              =    -321.24997750 Ry
     estimated scf accuracy    <          2.5E-09 Ry

     iteration #  8     ecut=    40.00 Ry     beta= 0.60
     Davidson diagonalization with overlap
     ethr =  2.33E-12,  avg # of iterations =  2.0

     negative rho (up, down):  1.006E-03 0.000E+00

     total cpu time spent up to now is      871.1 secs

     total energy              =    -321.24997750 Ry
     estimated scf accuracy    <          1.8E-09 Ry

     iteration #  9     ecut=    40.00 Ry     beta= 0.60
     Davidson diagonalization with overlap
     ethr =  1.66E-12,  avg # of iterations =  1.5

     negative rho (up, down):  1.005E-03 0.000E+00

     total cpu time spent up to now is      895.2 secs

     total energy              =    -321.24997750 Ry
     estimated scf accuracy    <          1.4E-09 Ry

     iteration # 10     ecut=    40.00 Ry     beta= 0.60
     Davidson diagonalization with overlap
     ethr =  1.30E-12,  avg # of iterations =  2.0

     negative rho (up, down):  1.006E-03 0.000E+00

     total cpu time spent up to now is      904.1 secs

     End of self-consistent calculation

          k = 0.2500 0.3637-0.1151 ( 25244 PWs)   bands (ev):

   -17.5953 -16.9059 -15.1539 -14.2674 -13.7589 -13.4082 -12.8769 -12.6651
   -12.5094 -12.2167 -11.3308 -10.7761  -9.9579  -9.8794  -9.7922  -8.9545
    -8.9112  -8.0681  -7.8564  -7.5690  -7.2780  -6.7210  -6.6526  -6.4018
    -5.8469  -5.5824  -5.5638  -5.2139  -5.1096  -4.7115  -4.6839  -4.3714
    -4.3054  -4.0654  -3.8506  -3.7634  -3.6887  -3.5963  -3.4643  -3.3530
    -2.8769  -2.7127  -2.6087  -2.5769  -2.0176  -1.8175  -1.6742  -1.5721
    -1.1749  -1.0621  -0.8888  -0.7343  -0.6124   0.8208   1.4483   1.7250
     1.7653   1.9376   2.0210   2.3530   2.3624   2.3916   2.6591   2.8346

          k =-0.2500 0.3637 0.1151 ( 25244 PWs)   bands (ev):

   -17.5970 -16.9029 -15.1537 -14.2673 -13.7593 -13.4080 -12.8778 -12.6761
   -12.5104 -12.2173 -11.3276 -10.7772  -9.9089  -9.8857  -9.7960  -8.9538
    -8.9107  -8.0636  -7.8535  -7.5728  -7.3326  -6.7494  -6.6553  -6.4234
    -5.8494  -5.5766  -5.5387  -5.1884  -5.0628  -4.7169  -4.6955  -4.3699
    -4.2971  -4.0644  -3.8404  -3.7650  -3.6376  -3.5962  -3.4739  -3.4391
    -2.8783  -2.7107  -2.6034  -2.5666  -2.0145  -1.8126  -1.6823  -1.5726
    -1.2199  -0.9269  -0.9000  -0.7888  -0.6364   0.8401   1.4457   1.7189
     1.7541   1.9354   2.0197   2.3469   2.3654   2.3924   2.6702   2.8348

     the Fermi energy is     0.3829 ev

!    total energy              =    -321.24997750 Ry
     estimated scf accuracy    <          9.9E-10 Ry
     smearing contrib. (-TS)   =      -0.00000000 Ry
     internal energy E=F+TS    =    -321.24997750 Ry

     The total energy is F=E-TS. E is the sum of the following terms:
     one-electron contribution =   -3216.49820987 Ry
     hartree contribution      =    1633.89556482 Ry
     xc contribution           =    -118.12220397 Ry
     ewald contribution        =    1379.70524565 Ry
     Dispersion Correction     =      -0.23037413 Ry

     convergence has been achieved in  10 iterations

     negative rho (up, down):  1.006E-03 0.000E+00

     Forces acting on atoms (cartesian axes, Ry/au):

     atom    1 type  1   force =     0.00012943   -0.00002343    0.00016422
     atom    2 type  1   force =     0.00007497    0.00007864    0.00011358
     atom    3 type  1   force =     0.00011684    0.00020832    0.00005558
     atom    4 type  1   force =     0.00005892    0.00010133    0.00020757
     atom    5 type  1   force =     0.00018825    0.00003297    0.00016501
     atom    6 type  1   force =     0.00012849    0.00006730    0.00015007
     atom    7 type  1   force =     0.00015742    0.00017120    0.00019585
     atom    8 type  1   force =     0.00012448    0.00012083    0.00025762
     atom    9 type  4   force =     0.00004899   -0.00004910    0.00007720
     atom   10 type  4   force =     0.00000815   -0.00015863   -0.00000238
     atom   11 type  2   force =     0.00004474   -0.00011782   -0.00006968
     atom   12 type  2   force =    -0.00000789   -0.00019306   -0.00017322
     atom   13 type  3   force =     0.00022651    0.00012898   -0.00048810
     atom   14 type  3   force =    -0.00015540    0.00011501    0.00002284
     atom   15 type  3   force =    -0.00013150    0.00010157   -0.00039157
     atom   16 type  3   force =     0.00005254   -0.00007797   -0.00008310
     atom   17 type  3   force =     0.00019362   -0.00022550    0.00011946
     atom   18 type  3   force =     0.00010303   -0.00003794    0.00004422
     atom   19 type  3   force =    -0.00004173   -0.00016086   -0.00008786
     atom   20 type  3   force =     0.00016740   -0.00010304    0.00000499
     atom   21 type  1   force =    -0.00014685   -0.00009396    0.00007098
     atom   22 type  1   force =    -0.00010910   -0.00005042   -0.00003412
     atom   23 type  1   force =    -0.00015693   -0.00001242   -0.00002367
     atom   24 type  1   force =    -0.00006345    0.00003884   -0.00009565
     atom   25 type  1   force =    -0.00021882   -0.00008173    0.00011221
     atom   26 type  1   force =    -0.00027683   -0.00009122   -0.00011195
     atom   27 type  1   force =    -0.00021887    0.00019894   -0.00007246
     atom   28 type  1   force =    -0.00029642    0.00011318   -0.00012764

     Total force =     0.001343     Total SCF correction =     0.000064
     Energy error            =      3.3E-06 Ry
     Gradient error          =      4.9E-04 Ry/Bohr

     number of scf cycles    =   3
     number of bfgs steps    =   2

     energy             old  =    -321.2499742033 Ry
     energy             new  =    -321.2499775019 Ry

     CASE: energy            _new < energy            _old

     new trust radius        =       0.0014793964 bohr
     new conv_thr            =       0.0000000010 Ry


ATOMIC_POSITIONS (angstrom)
P             0.0056529008        2.1762410765       10.2135121261
P             1.6680497513        3.6498558992       10.2153215530
P             0.0087153619        1.3622061685       12.3354469457
P             1.6679428264       -0.1171602471       12.3434708693
P             3.3281166681        2.1716624141       10.2094554412
P             4.9881524892        3.6520998974       10.2165633638
P             3.3231825315        1.3700011963       12.3355498542
P             4.9870766006       -0.1092021152       12.3433398507
N             5.3729895910        2.5638021285       15.6560948763
N             1.6518490148        2.7525985790       15.6613164822
C             4.0055898036        2.0790612358       15.8040832867
C             3.0264613354        3.2284011554       15.6273560501
H             3.7345621690        1.2674374242       15.0927796407
H             3.8881872507        1.6495354945       16.8145542082
H             3.1742823746        3.9584770598       16.4428616292
H             3.2877766048        3.7659821630       14.6828884432
H             5.5879684383        2.7461826269       14.6668946504
H             6.0564388639        1.8826087560       16.0064746947
H             1.3896352093        2.3271579595       14.7622453668
H             0.9842282646        3.5112375632       15.8431640454
P            -0.2944131285        2.7602536078       19.1209743853
P             1.3716865412        4.2365834637       19.1217183189
P            -0.2905513602        1.9650294408       21.2504358403
P             1.3627883858        0.4804341319       21.2470666985
P             3.0283443145        2.7605107686       19.1614427349
P             4.6871571956        4.2401490654       19.1319423641
P             3.0297549120        1.9507932134       21.2775520094
P             4.6979550896        0.4811798728       21.2563630708



     Writing config-only to output data dir sand2.55/sand2.55.save/
     NEW-OLD atomic charge density approx. for the potential

     negative rho (up, down):  1.006E-03 0.000E+00

     total cpu time spent up to now is      910.6 secs

     Self-consistent Calculation

     iteration #  1     ecut=    40.00 Ry     beta= 0.60
     Davidson diagonalization with overlap
     ethr =  1.00E-06,  avg # of iterations =  2.0

     Threshold (ethr) on eigenvalues was too large:
     Diagonalizing with lowered threshold

     Davidson diagonalization with overlap
     ethr =  5.51E-10,  avg # of iterations =  5.0

     negative rho (up, down):  1.007E-03 0.000E+00

     total cpu time spent up to now is      956.3 secs

     total energy              =    -321.24998129 Ry
     estimated scf accuracy    <       0.00000045 Ry

     iteration #  2     ecut=    40.00 Ry     beta= 0.60
     Davidson diagonalization with overlap
     ethr =  4.21E-10,  avg # of iterations =  1.5

     negative rho (up, down):  1.007E-03 0.000E+00

     total cpu time spent up to now is      982.0 secs

     total energy              =    -321.24998128 Ry
     estimated scf accuracy    <       0.00000012 Ry

     iteration #  3     ecut=    40.00 Ry     beta= 0.60
     Davidson diagonalization with overlap
     ethr =  1.15E-10,  avg # of iterations =  2.0

     negative rho (up, down):  1.007E-03 0.000E+00

     total cpu time spent up to now is     1023.6 secs

     total energy              =    -321.24998130 Ry
     estimated scf accuracy    <          7.8E-09 Ry

     iteration #  4     ecut=    40.00 Ry     beta= 0.60
     Davidson diagonalization with overlap
     ethr =  7.37E-12,  avg # of iterations =  7.0

     negative rho (up, down):  1.007E-03 0.000E+00

     total cpu time spent up to now is     1062.2 secs

     total energy              =    -321.24998131 Ry
     estimated scf accuracy    <          3.6E-09 Ry

     iteration #  5     ecut=    40.00 Ry     beta= 0.60
     Davidson diagonalization with overlap
     ethr =  3.36E-12,  avg # of iterations =  1.0

     negative rho (up, down):  1.007E-03 0.000E+00

     total cpu time spent up to now is     1085.4 secs

     total energy              =    -321.24998131 Ry
     estimated scf accuracy    <          2.2E-09 Ry

     iteration #  6     ecut=    40.00 Ry     beta= 0.60
     Davidson diagonalization with overlap
     ethr =  2.09E-12,  avg # of iterations =  1.0

     negative rho (up, down):  1.007E-03 0.000E+00

     total cpu time spent up to now is     1113.6 secs

     total energy              =    -321.24998131 Ry
     estimated scf accuracy    <          1.7E-09 Ry

     iteration #  7     ecut=    40.00 Ry     beta= 0.60
     Davidson diagonalization with overlap
     ethr =  1.59E-12,  avg # of iterations =  2.0

     negative rho (up, down):  1.007E-03 0.000E+00

     total cpu time spent up to now is     1147.2 secs

     total energy              =    -321.24998131 Ry
     estimated scf accuracy    <          1.1E-09 Ry

     iteration #  8     ecut=    40.00 Ry     beta= 0.60
     Davidson diagonalization with overlap
     ethr =  1.00E-12,  avg # of iterations =  2.0

     negative rho (up, down):  1.006E-03 0.000E+00

     total cpu time spent up to now is     1155.8 secs

     End of self-consistent calculation

          k = 0.2500 0.3637-0.1151 ( 25244 PWs)   bands (ev):

   -17.5949 -16.9055 -15.1535 -14.2675 -13.7586 -13.4075 -12.8770 -12.6648
   -12.5089 -12.2163 -11.3306 -10.7757  -9.9572  -9.8792  -9.7927  -8.9538
    -8.9117  -8.0674  -7.8562  -7.5691  -7.2774  -6.7207  -6.6525  -6.4016
    -5.8468  -5.5821  -5.5638  -5.2132  -5.1088  -4.7113  -4.6837  -4.3718
    -4.3052  -4.0650  -3.8502  -3.7627  -3.6885  -3.5963  -3.4644  -3.3531
    -2.8762  -2.7126  -2.6090  -2.5771  -2.0179  -1.8176  -1.6738  -1.5722
    -1.1749  -1.0623  -0.8890  -0.7343  -0.6125   0.8202   1.4481   1.7250
     1.7652   1.9369   2.0202   2.3537   2.3629   2.3916   2.6597   2.8343

          k =-0.2500 0.3637 0.1151 ( 25244 PWs)   bands (ev):

   -17.5966 -16.9025 -15.1533 -14.2673 -13.7590 -13.4073 -12.8779 -12.6758
   -12.5099 -12.2169 -11.3276 -10.7767  -9.9082  -9.8854  -9.7964  -8.9532
    -8.9112  -8.0630  -7.8532  -7.5729  -7.3320  -6.7492  -6.6551  -6.4233
    -5.8492  -5.5766  -5.5383  -5.1878  -5.0620  -4.7168  -4.6953  -4.3703
    -4.2970  -4.0640  -3.8400  -3.7643  -3.6375  -3.5963  -3.4741  -3.4390
    -2.8777  -2.7108  -2.6036  -2.5668  -2.0147  -1.8128  -1.6820  -1.5728
    -1.2198  -0.9272  -0.9001  -0.7890  -0.6363   0.8395   1.4454   1.7189
     1.7540   1.9346   2.0189   2.3475   2.3658   2.3924   2.6709   2.8346

     the Fermi energy is     0.3827 ev

!    total energy              =    -321.24998131 Ry
     estimated scf accuracy    <          6.7E-10 Ry
     smearing contrib. (-TS)   =      -0.00000000 Ry
     internal energy E=F+TS    =    -321.24998131 Ry

     The total energy is F=E-TS. E is the sum of the following terms:
     one-electron contribution =   -3216.64100199 Ry
     hartree contribution      =    1633.96712570 Ry
     xc contribution           =    -118.12158581 Ry
     ewald contribution        =    1379.77586032 Ry
     Dispersion Correction     =      -0.23037953 Ry

     convergence has been achieved in   8 iterations

     negative rho (up, down):  1.006E-03 0.000E+00

     Forces acting on atoms (cartesian axes, Ry/au):

     atom    1 type  1   force =     0.00010876    0.00010024    0.00006389
     atom    2 type  1   force =     0.00013431   -0.00001293    0.00015754
     atom    3 type  1   force =     0.00011095    0.00006806    0.00017251
     atom    4 type  1   force =     0.00009668    0.00021117    0.00016125
     atom    5 type  1   force =     0.00011788    0.00012621    0.00014903
     atom    6 type  1   force =     0.00015266    0.00001728    0.00019967
     atom    7 type  1   force =     0.00010120    0.00005226    0.00018942
     atom    8 type  1   force =     0.00015212    0.00019397    0.00019338
     atom    9 type  4   force =    -0.00003069   -0.00014317    0.00012853
     atom   10 type  4   force =     0.00008130   -0.00020879   -0.00023023
     atom   11 type  2   force =     0.00008510   -0.00000348   -0.00010878
     atom   12 type  2   force =     0.00007013   -0.00010230   -0.00013007
     atom   13 type  3   force =     0.00025379    0.00016438   -0.00024792
     atom   14 type  3   force =    -0.00013117    0.00004233   -0.00016722
     atom   15 type  3   force =    -0.00010403    0.00003066   -0.00033153
     atom   16 type  3   force =    -0.00001011   -0.00015477   -0.00012107
     atom   17 type  3   force =     0.00017604   -0.00018923    0.00007311
     atom   18 type  3   force =     0.00006040   -0.00002365    0.00007320
     atom   19 type  3   force =    -0.00004398   -0.00007753    0.00008260
     atom   20 type  3   force =     0.00010377   -0.00011228   -0.00001305
     atom   21 type  1   force =    -0.00017390    0.00003666    0.00001472
     atom   22 type  1   force =    -0.00018018   -0.00008183   -0.00005813
     atom   23 type  1   force =    -0.00015833   -0.00006118    0.00001541
     atom   24 type  1   force =    -0.00010723    0.00007371   -0.00006251
     atom   25 type  1   force =    -0.00020604   -0.00003164   -0.00005149
     atom   26 type  1   force =    -0.00018700   -0.00012740   -0.00008240
     atom   27 type  1   force =    -0.00020267    0.00009579    0.00005944
     atom   28 type  1   force =    -0.00026975    0.00011746   -0.00012932

     Total force =     0.001231     Total SCF correction =     0.000052
     Energy error            =      3.8E-06 Ry
     Gradient error          =      3.3E-04 Ry/Bohr

     number of scf cycles    =   4
     number of bfgs steps    =   3

     energy             old  =    -321.2499775019 Ry
     energy             new  =    -321.2499813104 Ry

     CASE: energy            _new < energy            _old

     new trust radius        =       0.0022190947 bohr
     new conv_thr            =       0.0000000010 Ry


ATOMIC_POSITIONS (angstrom)
P             0.0059307185        2.1761500231       10.2138884935
P             1.6681950618        3.6500709328       10.2155571212
P             0.0089629162        1.3626965035       12.3355315563
P             1.6680645562       -0.1170072602       12.3439101065
P             3.3285259654        2.1716907966       10.2098144134
P             4.9884119685        3.6522825131       10.2168692234
P             3.3235228106        1.3704063401       12.3359495417
P             4.9873277485       -0.1089994836       12.3438881191
N             5.3731679321        2.5637312741       15.6563252705
N             1.6518434677        2.7520927430       15.6611986114
C             4.0056655769        2.0787961544       15.8039144204
C             3.0264370031        3.2281023520       15.6270309908
H             3.7350067869        1.2676472983       15.0917132286
H             3.8878577495        1.6497486459       16.8146735079
H             3.1740212837        3.9586793594       16.4420352705
H             3.2879066170        3.7658380377       14.6826737051
H             5.5883825599        2.7457335498       14.6670567647
H             6.0566449572        1.8825221175       16.0065835051
H             1.3895780186        2.3268470274       14.7621381190
H             0.9845248877        3.5111141924       15.8432061158
P            -0.2947158011        2.7600179917       19.1211367587
P             1.3714702267        4.2365099692       19.1216474637
P            -0.2908865224        1.9650209442       21.2503759562
P             1.3626505692        0.4804899761       21.2468684461
P             3.0278848316        2.7603204784       19.1617073041
P             4.6865585936        4.2399945167       19.1317033430
P             3.0292964553        1.9512300639       21.2773641677
P             4.6973430612        0.4813929425       21.2561072759



     Writing config-only to output data dir sand2.55/sand2.55.save/
     NEW-OLD atomic charge density approx. for the potential

     negative rho (up, down):  1.007E-03 0.000E+00

     total cpu time spent up to now is     1162.4 secs

     Self-consistent Calculation

     iteration #  1     ecut=    40.00 Ry     beta= 0.60
     Davidson diagonalization with overlap
     ethr =  1.00E-06,  avg # of iterations =  2.0

     Threshold (ethr) on eigenvalues was too large:
     Diagonalizing with lowered threshold

     Davidson diagonalization with overlap
     ethr =  1.09E-09,  avg # of iterations =  5.0

     negative rho (up, down):  1.007E-03 0.000E+00

     total cpu time spent up to now is     1211.6 secs

     total energy              =    -321.24998559 Ry
     estimated scf accuracy    <       0.00000101 Ry

     iteration #  2     ecut=    40.00 Ry     beta= 0.60
     Davidson diagonalization with overlap
     ethr =  9.51E-10,  avg # of iterations =  1.0

     negative rho (up, down):  1.007E-03 0.000E+00

     total cpu time spent up to now is     1241.4 secs

     total energy              =    -321.24998555 Ry
     estimated scf accuracy    <       0.00000028 Ry

     iteration #  3     ecut=    40.00 Ry     beta= 0.60
     Davidson diagonalization with overlap
     ethr =  2.64E-10,  avg # of iterations =  2.0

     negative rho (up, down):  1.007E-03 0.000E+00

     total cpu time spent up to now is     1272.8 secs

     total energy              =    -321.24998560 Ry
     estimated scf accuracy    <          9.2E-09 Ry

     iteration #  4     ecut=    40.00 Ry     beta= 0.60
     Davidson diagonalization with overlap
     ethr =  8.70E-12,  avg # of iterations = 12.0

     negative rho (up, down):  1.007E-03 0.000E+00

     total cpu time spent up to now is     1325.7 secs

     total energy              =    -321.24998564 Ry
     estimated scf accuracy    <          2.6E-09 Ry

     iteration #  5     ecut=    40.00 Ry     beta= 0.60
     Davidson diagonalization with overlap
     ethr =  2.41E-12,  avg # of iterations =  2.0

     negative rho (up, down):  1.007E-03 0.000E+00

     total cpu time spent up to now is     1334.6 secs

     End of self-consistent calculation

          k = 0.2500 0.3637-0.1151 ( 25244 PWs)   bands (ev):

   -17.5945 -16.9052 -15.1525 -14.2682 -13.7577 -13.4062 -12.8778 -12.6645
   -12.5090 -12.2153 -11.3311 -10.7748  -9.9565  -9.8796  -9.7926  -8.9526
    -8.9128  -8.0673  -7.8560  -7.5688  -7.2764  -6.7205  -6.6529  -6.4009
    -5.8466  -5.5814  -5.5643  -5.2121  -5.1077  -4.7108  -4.6839  -4.3717
    -4.3056  -4.0645  -3.8503  -3.7616  -3.6883  -3.5959  -3.4645  -3.3532
    -2.8762  -2.7132  -2.6094  -2.5773  -2.0177  -1.8173  -1.6739  -1.5719
    -1.1752  -1.0627  -0.8895  -0.7346  -0.6129   0.8200   1.4483   1.7244
     1.7654   1.9367   2.0199   2.3542   2.3639   2.3920   2.6598   2.8335

          k =-0.2500 0.3637 0.1151 ( 25244 PWs)   bands (ev):

   -17.5963 -16.9022 -15.1524 -14.2681 -13.7581 -13.4060 -12.8786 -12.6755
   -12.5100 -12.2160 -11.3282 -10.7756  -9.9074  -9.8856  -9.7964  -8.9520
    -8.9124  -8.0630  -7.8531  -7.5725  -7.3309  -6.7489  -6.6555  -6.4228
    -5.8490  -5.5770  -5.5377  -5.1868  -5.0609  -4.7163  -4.6955  -4.3702
    -4.2975  -4.0634  -3.8399  -3.7631  -3.6374  -3.5962  -3.4748  -3.4385
    -2.8776  -2.7114  -2.6042  -2.5666  -2.0145  -1.8125  -1.6821  -1.5725
    -1.2202  -0.9278  -0.9006  -0.7895  -0.6367   0.8394   1.4456   1.7184
     1.7544   1.9344   2.0186   2.3479   2.3666   2.3929   2.6712   2.8338

     the Fermi energy is     0.3821 ev

!    total energy              =    -321.24998564 Ry
     estimated scf accuracy    <          5.8E-10 Ry
     smearing contrib. (-TS)   =      -0.00000000 Ry
     internal energy E=F+TS    =    -321.24998564 Ry

     The total energy is F=E-TS. E is the sum of the following terms:
     one-electron contribution =   -3216.88733013 Ry
     hartree contribution      =    1634.09034284 Ry
     xc contribution           =    -118.12106977 Ry
     ewald contribution        =    1379.89846044 Ry
     Dispersion Correction     =      -0.23038902 Ry

     convergence has been achieved in   5 iterations

     negative rho (up, down):  1.007E-03 0.000E+00

     Forces acting on atoms (cartesian axes, Ry/au):

     atom    1 type  1   force =     0.00008537    0.00024775   -0.00003954
     atom    2 type  1   force =     0.00020472   -0.00010582    0.00021564
     atom    3 type  1   force =     0.00010522   -0.00008967    0.00030234
     atom    4 type  1   force =     0.00014462    0.00031984    0.00009957
     atom    5 type  1   force =     0.00003462    0.00023252    0.00013913
     atom    6 type  1   force =     0.00017561   -0.00002832    0.00026078
     atom    7 type  1   force =     0.00003466   -0.00008224    0.00016665
     atom    8 type  1   force =     0.00018046    0.00026046    0.00010917
     atom    9 type  4   force =    -0.00008909   -0.00014748    0.00002375
     atom   10 type  4   force =     0.00012439    0.00009626   -0.00011193
     atom   11 type  2   force =     0.00011923    0.00013932   -0.00009986
     atom   12 type  2   force =     0.00012866   -0.00009567   -0.00020661
     atom   13 type  3   force =     0.00026488    0.00017727    0.00004592
     atom   14 type  3   force =    -0.00010235   -0.00006938   -0.00040589
     atom   15 type  3   force =    -0.00006162   -0.00000745   -0.00017447
     atom   16 type  3   force =    -0.00008199   -0.00023702   -0.00018313
     atom   17 type  3   force =     0.00013150   -0.00014905    0.00012611
     atom   18 type  3   force =     0.00004397   -0.00006912    0.00014987
     atom   19 type  3   force =    -0.00010948   -0.00011176   -0.00002876
     atom   20 type  3   force =     0.00014667   -0.00030370   -0.00008120
     atom   21 type  1   force =    -0.00020587    0.00018044   -0.00005342
     atom   22 type  1   force =    -0.00026640   -0.00009372   -0.00008945
     atom   23 type  1   force =    -0.00016493   -0.00010694    0.00006024
     atom   24 type  1   force =    -0.00017113    0.00009493   -0.00001557
     atom   25 type  1   force =    -0.00018874    0.00002148   -0.00025046
     atom   26 type  1   force =    -0.00007874   -0.00014065   -0.00004734
     atom   27 type  1   force =    -0.00017976   -0.00002855    0.00020620
     atom   28 type  1   force =    -0.00022448    0.00009630   -0.00011776

     Total force =     0.001443     Total SCF correction =     0.000045
     Energy error            =      4.3E-06 Ry
     Gradient error          =      4.1E-04 Ry/Bohr

     number of scf cycles    =   5
     number of bfgs steps    =   4

     energy             old  =    -321.2499813104 Ry
     energy             new  =    -321.2499856351 Ry

     CASE: energy            _new < energy            _old

     new trust radius        =       0.0033286420 bohr
     new conv_thr            =       0.0000000010 Ry


ATOMIC_POSITIONS (angstrom)
P             0.0063859624        2.1761428550       10.2144312995
P             1.6685178293        3.6503492970       10.2160228042
P             0.0093840762        1.3633823876       12.3358107113
P             1.6683237964       -0.1166348134       12.3446041777
P             3.3291464346        2.1718467279       10.2104230798
P             4.9888827171        3.6525535058       10.2174588335
P             3.3240413772        1.3709689188       12.3366146588
P             4.9877899779       -0.1085845147       12.3447471365
N             5.3734079226        2.5636034000       15.6566384712
N             1.6518675094        2.7514992358       15.6610788913
C             4.0058372743        2.0784881098       15.8036280985
C             3.0264621557        3.2276090911       15.6263994484
H             3.7357832550        1.2680181527       15.0901762704
H             3.8873191774        1.6499981422       16.8146380862
H             3.1736167094        3.9589870967       16.4407713809
H             3.2880574744        3.7655052387       14.6822354846
H             5.5890553590        2.7450046355       14.6673683551
H             6.0569851756        1.8823230439       16.0068532033
H             1.3894207181        2.3262886358       14.7618709837
H             0.9850724238        3.5107176433       15.8432133929
P            -0.2952705790        2.7597583759       19.1213467250
P             1.3710082137        4.2363729412       19.1214924966
P            -0.2914719843        1.9649595671       21.2503175785
P             1.3623459008        0.4806069844       21.2465744923
P             3.0271098039        2.7600461693       19.1619586969
P             4.6856369869        4.2397166103       19.1313271420
P             3.0285293112        1.9518554771       21.2771890475
P             4.6963350210        0.4817370854       21.2556778534



     Writing config-only to output data dir sand2.55/sand2.55.save/
     NEW-OLD atomic charge density approx. for the potential

     negative rho (up, down):  1.007E-03 0.000E+00

     total cpu time spent up to now is     1341.1 secs

     Self-consistent Calculation

     iteration #  1     ecut=    40.00 Ry     beta= 0.60
     Davidson diagonalization with overlap
     ethr =  1.00E-06,  avg # of iterations =  2.0

     Threshold (ethr) on eigenvalues was too large:
     Diagonalizing with lowered threshold

     Davidson diagonalization with overlap
     ethr =  2.42E-09,  avg # of iterations =  5.0

     negative rho (up, down):  1.007E-03 0.000E+00

     total cpu time spent up to now is     1385.7 secs

     total energy              =    -321.24999041 Ry
     estimated scf accuracy    <       0.00000229 Ry

     iteration #  2     ecut=    40.00 Ry     beta= 0.60
     Davidson diagonalization with overlap
     ethr =  2.16E-09,  avg # of iterations =  1.0

     negative rho (up, down):  1.007E-03 0.000E+00

     total cpu time spent up to now is     1420.2 secs

     total energy              =    -321.24999034 Ry
     estimated scf accuracy    <       0.00000065 Ry

     iteration #  3     ecut=    40.00 Ry     beta= 0.60
     Davidson diagonalization with overlap
     ethr =  6.15E-10,  avg # of iterations =  2.0

     negative rho (up, down):  1.007E-03 0.000E+00

     total cpu time spent up to now is     1454.1 secs

     total energy              =    -321.24999044 Ry
     estimated scf accuracy    <       0.00000002 Ry

     iteration #  4     ecut=    40.00 Ry     beta= 0.60
     Davidson diagonalization with overlap
     ethr =  1.63E-11,  avg # of iterations = 13.5

     negative rho (up, down):  1.007E-03 0.000E+00

     total cpu time spent up to now is     1513.0 secs

     total energy              =    -321.24999052 Ry
     estimated scf accuracy    <          5.5E-09 Ry

     iteration #  5     ecut=    40.00 Ry     beta= 0.60
     Davidson diagonalization with overlap
     ethr =  5.22E-12,  avg # of iterations =  1.5

     negative rho (up, down):  1.007E-03 0.000E+00

     total cpu time spent up to now is     1537.1 secs

     total energy              =    -321.24999052 Ry
     estimated scf accuracy    <          2.1E-09 Ry

     iteration #  6     ecut=    40.00 Ry     beta= 0.60
     Davidson diagonalization with overlap
     ethr =  1.94E-12,  avg # of iterations =  3.5

     negative rho (up, down):  1.007E-03 0.000E+00

     total cpu time spent up to now is     1568.4 secs

     total energy              =    -321.24999052 Ry
     estimated scf accuracy    <          1.1E-09 Ry

     iteration #  7     ecut=    40.00 Ry     beta= 0.60
     Davidson diagonalization with overlap
     ethr =  1.01E-12,  avg # of iterations =  3.0

     negative rho (up, down):  1.007E-03 0.000E+00

     total cpu time spent up to now is     1579.0 secs

     End of self-consistent calculation

          k = 0.2500 0.3637-0.1151 ( 25244 PWs)   bands (ev):

   -17.5948 -16.9054 -15.1519 -14.2687 -13.7572 -13.4054 -12.8784 -12.6648
   -12.5089 -12.2147 -11.3313 -10.7743  -9.9558  -9.8797  -9.7928  -8.9519
    -8.9135  -8.0669  -7.8562  -7.5688  -7.2762  -6.7204  -6.6529  -6.4005
    -5.8471  -5.5810  -5.5646  -5.2114  -5.1068  -4.7107  -4.6840  -4.3720
    -4.3058  -4.0643  -3.8501  -3.7610  -3.6882  -3.5958  -3.4646  -3.3533
    -2.8760  -2.7134  -2.6099  -2.5776  -2.0179  -1.8174  -1.6737  -1.5720
    -1.1754  -1.0633  -0.8900  -0.7348  -0.6132   0.8196   1.4480   1.7243
     1.7653   1.9363   2.0193   2.3549   2.3645   2.3920   2.6603   2.8332

          k =-0.2500 0.3637 0.1151 ( 25244 PWs)   bands (ev):

   -17.5965 -16.9024 -15.1518 -14.2686 -13.7576 -13.4052 -12.8791 -12.6758
   -12.5099 -12.2155 -11.3285 -10.7750  -9.9068  -9.8856  -9.7966  -8.9514
    -8.9131  -8.0628  -7.8533  -7.5725  -7.3307  -6.7488  -6.6555  -6.4226
    -5.8494  -5.5772  -5.5375  -5.1860  -5.0600  -4.7162  -4.6955  -4.3704
    -4.2977  -4.0633  -3.8395  -3.7623  -3.6373  -3.5964  -3.4751  -3.4381
    -2.8774  -2.7117  -2.6048  -2.5668  -2.0146  -1.8127  -1.6818  -1.5726
    -1.2204  -0.9284  -0.9011  -0.7900  -0.6367   0.8390   1.4453   1.7184
     1.7543   1.9339   2.0181   2.3485   2.3671   2.3929   2.6719   2.8334

     the Fermi energy is     0.3818 ev

!    total energy              =    -321.24999052 Ry
     estimated scf accuracy    <          8.8E-10 Ry
     smearing contrib. (-TS)   =      -0.00000000 Ry
     internal energy E=F+TS    =    -321.24999052 Ry

     The total energy is F=E-TS. E is the sum of the following terms:
     one-electron contribution =   -3217.31183733 Ry
     hartree contribution      =    1634.30270482 Ry
     xc contribution           =    -118.12076581 Ry
     ewald contribution        =    1380.11031364 Ry
     Dispersion Correction     =      -0.23040584 Ry

     convergence has been achieved in   7 iterations

     negative rho (up, down):  1.007E-03 0.000E+00

     Forces acting on atoms (cartesian axes, Ry/au):

     atom    1 type  1   force =     0.00006320    0.00039870   -0.00012836
     atom    2 type  1   force =     0.00027914   -0.00016957    0.00027861
     atom    3 type  1   force =     0.00010262   -0.00023921    0.00042725
     atom    4 type  1   force =     0.00020032    0.00039286    0.00002975
     atom    5 type  1   force =    -0.00005126    0.00033007    0.00013324
     atom    6 type  1   force =     0.00019049   -0.00004580    0.00031946
     atom    7 type  1   force =    -0.00003322   -0.00020859    0.00012669
     atom    8 type  1   force =     0.00020502    0.00029422    0.00001484
     atom    9 type  4   force =     0.00004194   -0.00025256    0.00006777
     atom   10 type  4   force =     0.00039646   -0.00015310   -0.00047728
     atom   11 type  2   force =     0.00010765    0.00025368   -0.00016043
     atom   12 type  2   force =     0.00014214    0.00010910   -0.00008086
     atom   13 type  3   force =     0.00025578    0.00014961    0.00041518
     atom   14 type  3   force =    -0.00005824   -0.00023770   -0.00063421
     atom   15 type  3   force =     0.00002314   -0.00012590   -0.00005531
     atom   16 type  3   force =    -0.00015571   -0.00030955   -0.00033948
     atom   17 type  3   force =     0.00008996   -0.00006547    0.00007156
     atom   18 type  3   force =    -0.00011081   -0.00000553    0.00019999
     atom   19 type  3   force =    -0.00010486    0.00000256    0.00019536
     atom   20 type  3   force =    -0.00010915   -0.00014199   -0.00006651
     atom   21 type  1   force =    -0.00024030    0.00032526   -0.00012659
     atom   22 type  1   force =    -0.00035782   -0.00007591   -0.00012340
     atom   23 type  1   force =    -0.00018016   -0.00014456    0.00009794
     atom   24 type  1   force =    -0.00025674    0.00009482    0.00003968
     atom   25 type  1   force =    -0.00016672    0.00008195   -0.00046510
     atom   26 type  1   force =     0.00003423   -0.00011649   -0.00000568
     atom   27 type  1   force =    -0.00014998   -0.00018094    0.00033383
     atom   28 type  1   force =    -0.00015715    0.00004006   -0.00008794

     Total force =     0.001989     Total SCF correction =     0.000061
     Energy error            =      4.9E-06 Ry
     Gradient error          =      6.3E-04 Ry/Bohr

     number of scf cycles    =   6
     number of bfgs steps    =   5

     energy             old  =    -321.2499856351 Ry
     energy             new  =    -321.2499905228 Ry

     CASE: energy            _new < energy            _old

     new trust radius        =       0.0042176960 bohr
     new conv_thr            =       0.0000000013 Ry


ATOMIC_POSITIONS (angstrom)
P             0.0070367347        2.1763274297       10.2151229127
P             1.6690961578        3.6506739745       10.2168004704
P             0.0100087898        1.3642102045       12.3363915222
P             1.6687822048       -0.1159739517       12.3455514532
P             3.3299616297        2.1722089280       10.2113250575
P             4.9896075488        3.6529280852       10.2184180136
P             3.3247272782        1.3716426656       12.3375604425
P             4.9885131047       -0.1079125258       12.3459093977
N             5.3738926327        2.5633118183       15.6571023698
N             1.6521931724        2.7504773800       15.6605970562
C             4.0060857294        2.0781853321       15.8031436679
C             3.0265263094        3.2270787539       15.6255529762
H             3.7369356295        1.2685452620       15.0883389885
H             3.8865674390        1.6501660751       16.8142842593
H             3.1731101678        3.9593164250       16.4390530527
H             3.2881876565        3.7649103311       14.6814044032
H             5.5900010206        2.7440112918       14.6678059380
H             6.0573320705        1.8820751444       16.0073304596
H             1.3891642140        2.3255480511       14.7616377435
H             0.9856525854        3.5102206883       15.8432154847
P            -0.2961435370        2.7595587770       19.1215667381
P             1.3702003671        4.2361837837       19.1212174537
P            -0.2923638205        1.9648168764       21.2502829780
P             1.3617853160        0.4807869046       21.2462067322
P             3.0259801544        2.7597124070       19.1620585261
P             4.6844071761        4.2393229949       19.1308178092
P             3.0274207817        1.9525997308       21.2771014836
P             4.6949114869        0.4821871626       21.2550714099



     Writing config-only to output data dir sand2.55/sand2.55.save/
     NEW-OLD atomic charge density approx. for the potential

     negative rho (up, down):  1.007E-03 0.000E+00

     total cpu time spent up to now is     1585.5 secs

     Self-consistent Calculation

     iteration #  1     ecut=    40.00 Ry     beta= 0.60
     Davidson diagonalization with overlap
     ethr =  1.00E-06,  avg # of iterations =  2.0

     Threshold (ethr) on eigenvalues was too large:
     Diagonalizing with lowered threshold

     Davidson diagonalization with overlap
     ethr =  4.88E-09,  avg # of iterations =  5.0

     negative rho (up, down):  1.008E-03 0.000E+00

     total cpu time spent up to now is     1623.3 secs

     total energy              =    -321.24999618 Ry
     estimated scf accuracy    <       0.00000480 Ry

     iteration #  2     ecut=    40.00 Ry     beta= 0.60
     Davidson diagonalization with overlap
     ethr =  4.53E-09,  avg # of iterations =  1.0

     negative rho (up, down):  1.009E-03 0.000E+00

     total cpu time spent up to now is     1647.5 secs

     total energy              =    -321.24999597 Ry
     estimated scf accuracy    <       0.00000140 Ry

     iteration #  3     ecut=    40.00 Ry     beta= 0.60
     Davidson diagonalization with overlap
     ethr =  1.32E-09,  avg # of iterations =  2.0

     negative rho (up, down):  1.008E-03 0.000E+00

     total cpu time spent up to now is     1676.9 secs

     total energy              =    -321.24999619 Ry
     estimated scf accuracy    <       0.00000003 Ry

     iteration #  4     ecut=    40.00 Ry     beta= 0.60
     Davidson diagonalization with overlap
     ethr =  2.38E-11,  avg # of iterations = 15.0

     negative rho (up, down):  1.008E-03 0.000E+00

     total cpu time spent up to now is     1730.4 secs

     total energy              =    -321.24999635 Ry
     estimated scf accuracy    <          6.2E-09 Ry

     iteration #  5     ecut=    40.00 Ry     beta= 0.60
     Davidson diagonalization with overlap
     ethr =  5.84E-12,  avg # of iterations =  1.0

     negative rho (up, down):  1.008E-03 0.000E+00

     total cpu time spent up to now is     1758.3 secs

     total energy              =    -321.24999635 Ry
     estimated scf accuracy    <          1.5E-09 Ry

     iteration #  6     ecut=    40.00 Ry     beta= 0.60
     Davidson diagonalization with overlap
     ethr =  1.43E-12,  avg # of iterations =  3.5

     negative rho (up, down):  1.008E-03 0.000E+00

     total cpu time spent up to now is     1769.8 secs

     End of self-consistent calculation

          k = 0.2500 0.3637-0.1151 ( 25244 PWs)   bands (ev):

   -17.5953 -16.9059 -15.1512 -14.2696 -13.7564 -13.4047 -12.8793 -12.6653
   -12.5095 -12.2139 -11.3321 -10.7736  -9.9557  -9.8803  -9.7924  -8.9513
    -8.9144  -8.0673  -7.8567  -7.5684  -7.2754  -6.7209  -6.6534  -6.4000
    -5.8479  -5.5806  -5.5653  -5.2107  -5.1062  -4.7105  -4.6843  -4.3716
    -4.3064  -4.0643  -3.8505  -3.7607  -3.6882  -3.5953  -3.4645  -3.3533
    -2.8765  -2.7140  -2.6104  -2.5778  -2.0176  -1.8171  -1.6739  -1.5715
    -1.1758  -1.0640  -0.8904  -0.7354  -0.6137   0.8198   1.4482   1.7239
     1.7654   1.9366   2.0195   2.3551   2.3652   2.3922   2.6602   2.8327

          k =-0.2500 0.3637 0.1151 ( 25244 PWs)   bands (ev):

   -17.5970 -16.9029 -15.1510 -14.2695 -13.7569 -13.4045 -12.8800 -12.6763
   -12.5105 -12.2148 -11.3293 -10.7743  -9.9065  -9.8861  -9.7963  -8.9508
    -8.9140  -8.0632  -7.8538  -7.5721  -7.3299  -6.7492  -6.6560  -6.4222
    -5.8500  -5.5777  -5.5371  -5.1853  -5.0595  -4.7159  -4.6958  -4.3700
    -4.2985  -4.0632  -3.8397  -3.7618  -3.6376  -3.5963  -3.4757  -3.4374
    -2.8779  -2.7123  -2.6055  -2.5666  -2.0143  -1.8124  -1.6820  -1.5721
    -1.2209  -0.9290  -0.9018  -0.7908  -0.6370   0.8394   1.4454   1.7180
     1.7545   1.9342   2.0184   2.3487   2.3677   2.3932   2.6719   2.8329

     the Fermi energy is     0.3812 ev

!    total energy              =    -321.24999635 Ry
     estimated scf accuracy    <          5.1E-10 Ry
     smearing contrib. (-TS)   =      -0.00000000 Ry
     internal energy E=F+TS    =    -321.24999635 Ry

     The total energy is F=E-TS. E is the sum of the following terms:
     one-electron contribution =   -3217.94206982 Ry
     hartree contribution      =    1634.61754938 Ry
     xc contribution           =    -118.12097552 Ry
     ewald contribution        =    1380.42593175 Ry
     Dispersion Correction     =      -0.23043213 Ry

     convergence has been achieved in   6 iterations

     negative rho (up, down):  1.008E-03 0.000E+00

     Forces acting on atoms (cartesian axes, Ry/au):

     atom    1 type  1   force =     0.00005125    0.00050785   -0.00015205
     atom    2 type  1   force =     0.00032974   -0.00016249    0.00032667
     atom    3 type  1   force =     0.00010588   -0.00033011    0.00049167
     atom    4 type  1   force =     0.00024776    0.00038210   -0.00003063
     atom    5 type  1   force =    -0.00010957    0.00038411    0.00013669
     atom    6 type  1   force =     0.00018331   -0.00001367    0.00035144
     atom    7 type  1   force =    -0.00007780   -0.00028564    0.00006584
     atom    8 type  1   force =     0.00020857    0.00026373   -0.00006771
     atom    9 type  4   force =    -0.00015136   -0.00008708   -0.00006096
     atom   10 type  4   force =     0.00006711    0.00049362   -0.00010490
     atom   11 type  2   force =     0.00024797    0.00044064   -0.00011983
     atom   12 type  2   force =     0.00029060    0.00012475   -0.00027739
     atom   13 type  3   force =     0.00018772    0.00003824    0.00071856
     atom   14 type  3   force =    -0.00000800   -0.00043224   -0.00080722
     atom   15 type  3   force =     0.00011816   -0.00014114    0.00020205
     atom   16 type  3   force =    -0.00022147   -0.00035726   -0.00045885
     atom   17 type  3   force =     0.00008147    0.00002926    0.00004854
     atom   18 type  3   force =    -0.00004873   -0.00018656    0.00037002
     atom   19 type  3   force =    -0.00014280   -0.00010193   -0.00008556
     atom   20 type  3   force =     0.00010492   -0.00059263   -0.00018199
     atom   21 type  1   force =    -0.00026726    0.00041777   -0.00018652
     atom   22 type  1   force =    -0.00042878   -0.00000941   -0.00014599
     atom   23 type  1   force =    -0.00020569   -0.00014915    0.00011469
     atom   24 type  1   force =    -0.00035332    0.00005290    0.00009340
     atom   25 type  1   force =    -0.00014290    0.00013544   -0.00062380
     atom   26 type  1   force =     0.00012000   -0.00003183    0.00003294
     atom   27 type  1   force =    -0.00011776   -0.00032505    0.00038029
     atom   28 type  1   force =    -0.00006898   -0.00006421   -0.00002941

     Total force =     0.002504     Total SCF correction =     0.000043
     Energy error            =      5.8E-06 Ry
     Gradient error          =      8.1E-04 Ry/Bohr

     number of scf cycles    =   7
     number of bfgs steps    =   6

     energy             old  =    -321.2499905228 Ry
     energy             new  =    -321.2499963496 Ry

     CASE: energy            _new < energy            _old

     new trust radius        =       0.0058612213 bohr
     new conv_thr            =       0.0000000016 Ry


ATOMIC_POSITIONS (angstrom)
P             0.0080706058        2.1768864438       10.2161351738
P             1.6701680023        3.6511335854       10.2181835821
P             0.0110334640        1.3653254536       12.3375383846
P             1.6696326361       -0.1148048698       12.3469833516
P             3.3311582679        2.1729588150       10.2127990919
P             4.9908108343        3.6535415132       10.2200833923
P             3.3257425523        1.3725421491       12.3390253008
P             4.9897317085       -0.1067854716       12.3476492972
N             5.3745249657        2.5629122345       15.6577635728
N             1.6525726547        2.7493447432       15.6599245047
C             4.0066490237        2.0779992301       15.8023462121
C             3.0268238965        3.2263628920       15.6240328095
H             3.7387663984        1.2692989086       15.0859514420
H             3.8854190056        1.6501144553       16.8133044398
H             3.1724348659        3.9597514795       16.4366018691
H             3.2882635932        3.7638074954       14.6798132150
H             5.5915109054        2.7425386010       14.6684610597
H             6.0578675463        1.8815144330       16.0083358683
H             1.3886964214        2.3243115402       14.7611352155
H             0.9866698690        3.5090050302       15.8430943727
P            -0.2976367482        2.7594685303       19.1217984838
P             1.3687152310        4.2359367893       19.1207111001
P            -0.2938636371        1.9645336540       21.2502832403
P             1.3606968489        0.4810557761       21.2457045053
P             3.0241673485        2.7592748857       19.1618599147
P             4.6825819609        4.2387598567       19.1300577299
P             3.0256575346        1.9535417615       21.2771414219
P             4.6927142448        0.4827900848       21.2541502485



     Writing config-only to output data dir sand2.55/sand2.55.save/
     NEW-OLD atomic charge density approx. for the potential

     negative rho (up, down):  1.008E-03 0.000E+00

     total cpu time spent up to now is     1776.3 secs

     Self-consistent Calculation

     iteration #  1     ecut=    40.00 Ry     beta= 0.60
     Davidson diagonalization with overlap
     ethr =  1.00E-06,  avg # of iterations =  2.0

     Threshold (ethr) on eigenvalues was too large:
[...]

     negative rho (up, down):  1.013E-03 0.000E+00

     total cpu time spent up to now is    37464.9 secs

     total energy              =    -321.25149240 Ry
     estimated scf accuracy    <          4.0E-09 Ry

     iteration #  5     ecut=    40.00 Ry     beta= 0.60
     Davidson diagonalization with overlap
     ethr =  3.79E-12,  avg # of iterations =  2.0

     negative rho (up, down):  1.012E-03 0.000E+00

     total cpu time spent up to now is    37490.6 secs

     total energy              =    -321.25149240 Ry
     estimated scf accuracy    <          1.8E-09 Ry

     iteration #  6     ecut=    40.00 Ry     beta= 0.60
     Davidson diagonalization with overlap
     ethr =  1.74E-12,  avg # of iterations =  3.0

     negative rho (up, down):  1.012E-03 0.000E+00

     total cpu time spent up to now is    37531.5 secs

     total energy              =    -321.25149240 Ry
     estimated scf accuracy    <          1.2E-09 Ry

     iteration #  7     ecut=    40.00 Ry     beta= 0.60
     Davidson diagonalization with overlap
     ethr =  1.11E-12,  avg # of iterations =  2.0

     negative rho (up, down):  1.012E-03 0.000E+00

     total cpu time spent up to now is    37540.3 secs

     End of self-consistent calculation

          k = 0.2500 0.3637-0.1151 ( 25244 PWs)   bands (ev):

   -17.6277 -16.9359 -15.1574 -14.2614 -13.7625 -13.4112 -12.8722 -12.6921
   -12.5042 -12.2198 -11.3244 -10.7791  -9.9902  -9.8770  -9.7974  -8.9578
    -8.9075  -8.0587  -7.9056  -7.5679  -7.3079  -6.7566  -6.6500  -6.4032
    -5.8678  -5.5842  -5.5638  -5.2354  -5.1333  -4.7133  -4.6775  -4.3741
    -4.3007  -4.0814  -3.8650  -3.7695  -3.6874  -3.5963  -3.4610  -3.3721
    -2.8703  -2.7105  -2.6077  -2.5754  -2.0223  -1.8091  -1.6690  -1.5690
    -1.2009  -1.0809  -0.8355  -0.7834  -0.6171   0.8215   1.4509   1.7208
     1.7687   1.9364   2.0169   2.3557   2.3668   2.3894   2.6749   2.7701

          k =-0.2500 0.3637 0.1151 ( 25244 PWs)   bands (ev):

   -17.6294 -16.9329 -15.1572 -14.2613 -13.7631 -13.4108 -12.8721 -12.7039
   -12.5051 -12.2202 -11.3225 -10.7803  -9.9475  -9.8765  -9.8000  -8.9562
    -8.9074  -8.0598  -7.9000  -7.5704  -7.3639  -6.7859  -6.6483  -6.4294
    -5.8686  -5.5740  -5.5410  -5.2019  -5.0916  -4.7200  -4.6847  -4.3744
    -4.2975  -4.0816  -3.8633  -3.7656  -3.6555  -3.6056  -3.4712  -3.4166
    -2.8683  -2.7131  -2.5993  -2.5599  -2.0156  -1.8135  -1.6985  -1.5746
    -1.2296  -0.9592  -0.9022  -0.7874  -0.6259   0.8441   1.4490   1.7199
     1.7576   1.9340   2.0178   2.3550   2.3628   2.3920   2.6749   2.7711

     the Fermi energy is     0.3231 ev

!    total energy              =    -321.25149240 Ry
     estimated scf accuracy    <          6.3E-10 Ry
     smearing contrib. (-TS)   =       0.00000000 Ry
     internal energy E=F+TS    =    -321.25149240 Ry

     The total energy is F=E-TS. E is the sum of the following terms:
     one-electron contribution =   -3256.48080114 Ry
     hartree contribution      =    1653.86564164 Ry
     xc contribution           =    -118.12955604 Ry
     ewald contribution        =    1399.72598427 Ry
     Dispersion Correction     =      -0.23276113 Ry

     convergence has been achieved in   7 iterations

     negative rho (up, down):  1.012E-03 0.000E+00

     Forces acting on atoms (cartesian axes, Ry/au):

     atom    1 type  1   force =     0.00003936   -0.00003536   -0.00011643
     atom    2 type  1   force =     0.00002389    0.00008220    0.00010272
     atom    3 type  1   force =     0.00004317    0.00014556    0.00000288
     atom    4 type  1   force =    -0.00006721   -0.00003505   -0.00004671
     atom    5 type  1   force =     0.00004810   -0.00002459    0.00002311
     atom    6 type  1   force =    -0.00008175    0.00005200   -0.00001949
     atom    7 type  1   force =     0.00010110    0.00000229    0.00018156
     atom    8 type  1   force =    -0.00001371   -0.00003704   -0.00002550
     atom    9 type  4   force =     0.00002457   -0.00010137   -0.00001724
     atom   10 type  4   force =    -0.00006789    0.00011801   -0.00006868
     atom   11 type  2   force =    -0.00001504   -0.00001838    0.00000332
     atom   12 type  2   force =    -0.00004312    0.00006712   -0.00005280
     atom   13 type  3   force =     0.00016856   -0.00006925   -0.00003301
     atom   14 type  3   force =     0.00009306    0.00006272    0.00008020
     atom   15 type  3   force =    -0.00002355   -0.00002555    0.00006090
     atom   16 type  3   force =    -0.00009290    0.00016365   -0.00007158
     atom   17 type  3   force =    -0.00008715    0.00000813   -0.00002442
     atom   18 type  3   force =    -0.00001725   -0.00014338    0.00005842
     atom   19 type  3   force =    -0.00010564   -0.00010311    0.00005099
     atom   20 type  3   force =    -0.00003059    0.00012768    0.00008180
     atom   21 type  1   force =    -0.00003764   -0.00004506   -0.00010303
     atom   22 type  1   force =    -0.00001466   -0.00004337    0.00003324
     atom   23 type  1   force =     0.00008191   -0.00001307   -0.00011844
     atom   24 type  1   force =     0.00004909   -0.00009532   -0.00014323
     atom   25 type  1   force =     0.00005722   -0.00009552   -0.00012643
     atom   26 type  1   force =     0.00006478   -0.00000930    0.00025616
     atom   27 type  1   force =    -0.00004635    0.00003019   -0.00002318
     atom   28 type  1   force =    -0.00005035    0.00003519    0.00005487

     Total force =     0.000726     Total SCF correction =     0.000053
     Energy error            =      1.1E-06 Ry
     Gradient error          =      2.6E-04 Ry/Bohr

     number of scf cycles    = 109
     number of bfgs steps    = 108

     energy             old  =    -321.2514913105 Ry
     energy             new  =    -321.2514923966 Ry

     CASE: energy            _new < energy            _old

     new trust radius        =       0.0019253170 bohr
     new conv_thr            =       0.0000000010 Ry


ATOMIC_POSITIONS (angstrom)
P             0.2672272435        2.2862416412       10.2486761999
P             1.9317063817        3.7575759543       10.2522808698
P             0.2692913141        1.4693088240       12.3680281374
P             1.9289569402       -0.0084962214       12.3795607245
P             3.5913162340        2.2796027411       10.2491653090
P             5.2493989886        3.7610861848       10.2569529775
P             3.5852817968        1.4781944399       12.3751115157
P             5.2489270760       -0.0018706426       12.3846329290
N             5.5244918048        2.5746682769       15.6812553661
N             1.8062980036        2.7617968312       15.6129148260
C             4.1559464736        2.0977516588       15.8383397376
C             3.1802768370        3.2380332909       15.5974481170
H             3.8917775816        1.2561448930       15.1599879501
H             4.0269013457        1.7115021141       16.8658068677
H             3.3070638534        3.9981844464       16.3873036449
H             3.4658683621        3.7391783947       14.6398342773
H             5.7353624310        2.7484591605       14.6891697276
H             6.2072784743        1.8932006126       16.0328385116
H             1.5563000929        2.3240495876       14.7166694078
H             1.1342551310        3.5193351663       15.7813025893
P            -0.7857963835        2.6371250324       19.0990510356
P             0.8802906410        4.1117887544       19.0870600919
P            -0.7799659077        1.8377692042       21.2255245435
P             0.8752047478        0.3537839332       21.2142978179
P             2.5391131676        2.6330485420       19.1160040677
P             4.1971641911        4.1155570562       19.1106478581
P             2.5363782387        1.8303544408       21.2389266356
P             4.2032649392        0.3597456825       21.2320770641



     Writing config-only to output data dir sand2.55/sand2.55.save/
     NEW-OLD atomic charge density approx. for the potential

     negative rho (up, down):  1.012E-03 0.000E+00

     total cpu time spent up to now is    37546.9 secs

     Self-consistent Calculation

     iteration #  1     ecut=    40.00 Ry     beta= 0.60
     Davidson diagonalization with overlap
     ethr =  1.00E-06,  avg # of iterations =  2.0

     Threshold (ethr) on eigenvalues was too large:
     Diagonalizing with lowered threshold

     Davidson diagonalization with overlap
     ethr =  6.52E-10,  avg # of iterations =  5.0

     negative rho (up, down):  1.012E-03 0.000E+00

     total cpu time spent up to now is    37605.9 secs

     total energy              =    -321.25149330 Ry
     estimated scf accuracy    <       0.00000066 Ry

     iteration #  2     ecut=    40.00 Ry     beta= 0.60
     Davidson diagonalization with overlap
     ethr =  6.26E-10,  avg # of iterations =  1.0

     negative rho (up, down):  1.012E-03 0.000E+00

     total cpu time spent up to now is    37629.1 secs

     total energy              =    -321.25149326 Ry
     estimated scf accuracy    <       0.00000019 Ry

     iteration #  3     ecut=    40.00 Ry     beta= 0.60
     Davidson diagonalization with overlap
     ethr =  1.83E-10,  avg # of iterations =  2.0

     negative rho (up, down):  1.011E-03 0.000E+00

     total cpu time spent up to now is    37662.8 secs

     total energy              =    -321.25149329 Ry
     estimated scf accuracy    <          3.8E-09 Ry

     iteration #  4     ecut=    40.00 Ry     beta= 0.60
     Davidson diagonalization with overlap
     ethr =  3.61E-12,  avg # of iterations = 13.5

     negative rho (up, down):  1.011E-03 0.000E+00

     total cpu time spent up to now is    37721.1 secs

     total energy              =    -321.25149331 Ry
     estimated scf accuracy    <          1.5E-09 Ry

     iteration #  5     ecut=    40.00 Ry     beta= 0.60
     Davidson diagonalization with overlap
     ethr =  1.42E-12,  avg # of iterations =  2.0

     negative rho (up, down):  1.012E-03 0.000E+00

     total cpu time spent up to now is    37729.5 secs

     End of self-consistent calculation

          k = 0.2500 0.3637-0.1151 ( 25244 PWs)   bands (ev):

   -17.6277 -16.9359 -15.1574 -14.2617 -13.7624 -13.4113 -12.8724 -12.6920
   -12.5046 -12.2198 -11.3247 -10.7790  -9.9909  -9.8773  -9.7970  -8.9579
    -8.9076  -8.0592  -7.9056  -7.5677  -7.3082  -6.7569  -6.6502  -6.4032
    -5.8683  -5.5841  -5.5640  -5.2358  -5.1335  -4.7132  -4.6777  -4.3738
    -4.3010  -4.0818  -3.8652  -3.7697  -3.6874  -3.5962  -3.4610  -3.3723
    -2.8707  -2.7107  -2.6077  -2.5753  -2.0220  -1.8089  -1.6692  -1.5688
    -1.2009  -1.0810  -0.8354  -0.7835  -0.6173   0.8220   1.4511   1.7206
     1.7688   1.9369   2.0174   2.3556   2.3667   2.3895   2.6746   2.7703

          k =-0.2500 0.3637 0.1151 ( 25244 PWs)   bands (ev):

   -17.6294 -16.9330 -15.1571 -14.2616 -13.7630 -13.4110 -12.8723 -12.7038
   -12.5055 -12.2201 -11.3228 -10.7803  -9.9481  -9.8769  -9.7996  -8.9563
    -8.9075  -8.0602  -7.9000  -7.5702  -7.3641  -6.7862  -6.6486  -6.4294
    -5.8690  -5.5742  -5.5411  -5.2020  -5.0921  -4.7199  -4.6849  -4.3740
    -4.2978  -4.0819  -3.8636  -3.7658  -3.6558  -3.6053  -3.4712  -3.4167
    -2.8688  -2.7132  -2.5994  -2.5597  -2.0154  -1.8132  -1.6987  -1.5743
    -1.2297  -0.9589  -0.9023  -0.7874  -0.6261   0.8445   1.4492   1.7198
     1.7576   1.9346   2.0184   2.3549   2.3627   2.3921   2.6745   2.7712

     the Fermi energy is     0.3232 ev

!    total energy              =    -321.25149331 Ry
     estimated scf accuracy    <          4.2E-10 Ry
     smearing contrib. (-TS)   =       0.00000000 Ry
     internal energy E=F+TS    =    -321.25149331 Ry

     The total energy is F=E-TS. E is the sum of the following terms:
     one-electron contribution =   -3256.57062931 Ry
     hartree contribution      =    1653.91058924 Ry
     xc contribution           =    -118.12963945 Ry
     ewald contribution        =    1399.77095169 Ry
     Dispersion Correction     =      -0.23276549 Ry

     convergence has been achieved in   5 iterations

     negative rho (up, down):  1.012E-03 0.000E+00

     Forces acting on atoms (cartesian axes, Ry/au):

     atom    1 type  1   force =     0.00001764   -0.00005736   -0.00009992
     atom    2 type  1   force =    -0.00000132    0.00011419    0.00006639
     atom    3 type  1   force =     0.00000950    0.00016454   -0.00000208
     atom    4 type  1   force =    -0.00005722   -0.00006723   -0.00001953
     atom    5 type  1   force =     0.00003999   -0.00010336    0.00005783
     atom    6 type  1   force =    -0.00001499    0.00009271    0.00000356
     atom    7 type  1   force =     0.00006411    0.00008475    0.00012834
     atom    8 type  1   force =     0.00003822   -0.00007684   -0.00003414
     atom    9 type  4   force =     0.00002766   -0.00006225    0.00005390
     atom   10 type  4   force =    -0.00002793    0.00011034   -0.00003915
     atom   11 type  2   force =    -0.00002241   -0.00004052   -0.00004957
     atom   12 type  2   force =    -0.00001841    0.00006776   -0.00003594
     atom   13 type  3   force =     0.00009421   -0.00010905   -0.00010599
     atom   14 type  3   force =     0.00012799    0.00016779    0.00005103
     atom   15 type  3   force =    -0.00005424   -0.00000920    0.00010062
     atom   16 type  3   force =    -0.00008379    0.00008559   -0.00007636
     atom   17 type  3   force =    -0.00011326   -0.00003529    0.00004198
     atom   18 type  3   force =     0.00001169   -0.00012045    0.00001877
     atom   19 type  3   force =    -0.00011993   -0.00007066    0.00005765
     atom   20 type  3   force =    -0.00002510    0.00010141    0.00005518
     atom   21 type  1   force =     0.00001106   -0.00008786   -0.00005673
     atom   22 type  1   force =     0.00006264   -0.00002668    0.00003713
     atom   23 type  1   force =     0.00008224   -0.00000814   -0.00009814
     atom   24 type  1   force =     0.00003912   -0.00011850   -0.00013393
     atom   25 type  1   force =     0.00001431   -0.00008788   -0.00006680
     atom   26 type  1   force =    -0.00002978    0.00003614    0.00017729
     atom   27 type  1   force =    -0.00004587    0.00006121   -0.00008174
     atom   28 type  1   force =    -0.00002612   -0.00000512    0.00005035

     Total force =     0.000685     Total SCF correction =     0.000033
     Energy error            =      9.1E-07 Ry
     Gradient error          =      1.8E-04 Ry/Bohr

     bfgs converged in 110 scf cycles and 109 bfgs steps
     (criteria: energy <  1.0E-06 Ry, force <  5.0E-04 Ry/Bohr)

     End of BFGS Geometry Optimization

     Final energy             =    -321.2514933099 Ry

     File sand2.55/sand2.55.bfgs deleted, as requested
Begin final coordinates

ATOMIC_POSITIONS (angstrom)
P             0.2672272435        2.2862416412       10.2486761999
P             1.9317063817        3.7575759543       10.2522808698
P             0.2692913141        1.4693088240       12.3680281374
P             1.9289569402       -0.0084962214       12.3795607245
P             3.5913162340        2.2796027411       10.2491653090
P             5.2493989886        3.7610861848       10.2569529775
P             3.5852817968        1.4781944399       12.3751115157
P             5.2489270760       -0.0018706426       12.3846329290
N             5.5244918048        2.5746682769       15.6812553661
N             1.8062980036        2.7617968312       15.6129148260
C             4.1559464736        2.0977516588       15.8383397376
C             3.1802768370        3.2380332909       15.5974481170
H             3.8917775816        1.2561448930       15.1599879501
H             4.0269013457        1.7115021141       16.8658068677
H             3.3070638534        3.9981844464       16.3873036449
H             3.4658683621        3.7391783947       14.6398342773
H             5.7353624310        2.7484591605       14.6891697276
H             6.2072784743        1.8932006126       16.0328385116
H             1.5563000929        2.3240495876       14.7166694078
H             1.1342551310        3.5193351663       15.7813025893
P            -0.7857963835        2.6371250324       19.0990510356
P             0.8802906410        4.1117887544       19.0870600919
P            -0.7799659077        1.8377692042       21.2255245435
P             0.8752047478        0.3537839332       21.2142978179
P             2.5391131676        2.6330485420       19.1160040677
P             4.1971641911        4.1155570562       19.1106478581
P             2.5363782387        1.8303544408       21.2389266356
P             4.2032649392        0.3597456825       21.2320770641
End final coordinates



     Writing all to output data dir sand2.55/sand2.55.save/

     init_run     :      2.70s CPU      4.37s WALL (       1 calls)
     electrons    :  21775.21s CPU  37040.46s WALL (     110 calls)
     update_pot   :    141.12s CPU    141.71s WALL (     109 calls)
     forces       :    246.24s CPU    427.83s WALL (     110 calls)
     force_london :      7.79s CPU      7.81s WALL (     110 calls)

     Called by init_run:
     wfcinit      :      1.19s CPU      2.30s WALL (       1 calls)
     potinit      :      0.43s CPU      0.44s WALL (       1 calls)
     hinit0       :      0.77s CPU      0.91s WALL (       1 calls)

     Called by electrons:
     c_bands      :   5533.43s CPU  11938.16s WALL (    1189 calls)
     sum_band     :    775.07s CPU   1596.12s WALL (    1189 calls)
     v_of_rho     :     79.43s CPU     87.01s WALL (    1209 calls)
     newd         :    364.17s CPU    779.72s WALL (    1209 calls)
     mix_rho      :  15015.28s CPU  22620.30s WALL (    1189 calls)
     energy_londo :      6.27s CPU      6.43s WALL (     110 calls)

     Called by c_bands:
     init_us_2    :     35.91s CPU     49.99s WALL (    4978 calls)
     init_us_2:cp :     35.88s CPU     49.95s WALL (    4978 calls)
     cegterg      :   5365.46s CPU  11708.61s WALL (    2378 calls)

     Called by *egterg:
     cdiaghg      :   1099.79s CPU   1999.10s WALL (   10507 calls)
     h_psi        :   2023.83s CPU   4285.60s WALL (   10907 calls)
     s_psi        :    164.48s CPU    306.29s WALL (   10907 calls)
     g_psi        :      3.24s CPU      3.29s WALL (    8527 calls)

     Called by h_psi:
     h_psi:calbec :    934.16s CPU   2410.53s WALL (   10907 calls)
     vloc_psi     :    802.19s CPU    982.98s WALL (   10907 calls)
     add_vuspsi   :    279.06s CPU    867.37s WALL (   10907 calls)

     General routines
     calbec       :   1218.61s CPU   3093.59s WALL (   14165 calls)
     fft          :    118.15s CPU    187.56s WALL (   16906 calls)
     ffts         :   4775.45s CPU   7079.76s WALL (  691621 calls)
     fftw         :    853.93s CPU    936.39s WALL ( 1033514 calls)
     interpolate  :      7.25s CPU      7.76s WALL (    1209 calls)

     Parallel routines

     PWSCF        :      6h10m CPU     10h28m WALL


   This run was terminated on:   3:12:28  27Apr2023            

=------------------------------------------------------------------------------=
   JOB DONE.
=------------------------------------------------------------------------------=
Note: The following floating-point exceptions are signalling: IEEE_UNDERFLOW_FLAG IEEE_DENORMAL
Note: The following floating-point exceptions are signalling: IEEE_UNDERFLOW_FLAG IEEE_DENORMAL
Note: The following floating-point exceptions are signalling: IEEE_UNDERFLOW_FLAG IEEE_DENORMAL
Note: The following floating-point exceptions are signalling: IEEE_UNDERFLOW_FLAG IEEE_DENORMAL
Note: The following floating-point exceptions are signalling: IEEE_UNDERFLOW_FLAG IEEE_DENORMAL
Note: The following floating-point exceptions are signalling: IEEE_UNDERFLOW_FLAG IEEE_DENORMAL
Note: The following floating-point exceptions are signalling: IEEE_UNDERFLOW_FLAG IEEE_DENORMAL
Note: The following floating-point exceptions are signalling: IEEE_UNDERFLOW_FLAG IEEE_DENORMAL
